
     Program PWSCF v.6.4.1 starts on  5Jan2021 at  9:35:59 

     This program is part of the open-source Quantum ESPRESSO suite
     for quantum simulation of materials; please cite
         "P. Giannozzi et al., J. Phys.:Condens. Matter 21 395502 (2009);
         "P. Giannozzi et al., J. Phys.:Condens. Matter 29 465901 (2017);
          URL http://www.quantum-espresso.org", 
     in publications or presentations arising from this work. More details at
     http://www.quantum-espresso.org/quote

     Parallel version (MPI), running on     8 processors

     MPI processes distributed on     1 nodes
     R & G space division:  proc/nbgrp/npool/nimage =       8
     Waiting for input...
     Reading input from standard input

     Current dimensions of program PWSCF are:
     Max number of different atomic species (ntypx) = 10
     Max number of k-points (npk) =  40000
     Max angular momentum in pseudopotentials (lmaxx) =  3

     Subspace diagonalization in iterative solution of the eigenvalue problem:
     a serial algorithm will be used

     Found symmetry operation: I + ( -0.5000 -0.5000  0.0000)
     This is a supercell, fractional translations are disabled
 
     Parallelization info
     --------------------
     sticks:   dense  smooth     PW     G-vecs:    dense   smooth      PW
     Min         102      45     15                 2428      718     151
     Max         103      47     16                 2429      719     155
     Sum         819     369    125                19425     5749    1227
 


     bravais-lattice index     =          -12
     lattice parameter (alat)  =       7.6884  a.u.
     unit-cell volume          =     206.0005 (a.u.)^3
     number of atoms/cell      =            4
     number of atomic types    =            1
     number of electrons       =        24.00
     number of Kohn-Sham states=           16
     kinetic-energy cutoff     =      35.0000  Ry
     charge density cutoff     =     315.0000  Ry
     convergence threshold     =      1.0E-06
     mixing beta               =       0.4000
     number of iterations used =            8  plain     mixing
     Exchange-correlation      = SLA PW PBE PBE ( 1  4  3  4 0 0)
     nstep                     =          100


     celldm(1)=   7.688443  celldm(2)=   0.554111  celldm(3)=   1.056152
     celldm(4)=   0.000000  celldm(5)=  -0.632556  celldm(6)=   0.000000

     crystal axes: (cart. coord. in units of alat)
               a(1) = (   1.000000   0.000000   0.000000 )  
               a(2) = (   0.000000   0.554111   0.000000 )  
               a(3) = (  -0.668075   0.000000   0.818005 )  

     reciprocal axes: (cart. coord. in units 2 pi/alat)
               b(1) = (  1.000000 -0.000000  0.816713 )  
               b(2) = (  0.000000  1.804692 -0.000000 )  
               b(3) = (  0.000000  0.000000  1.222486 )  


     PseudoPot. # 1 for O  read from file:
     ../pseudo/O.pbe-van_ak.UPF
     MD5 check sum: 572909515f9aa9498032b6eb5528d5f9
     Pseudo is Ultrasoft, Zval =  6.0
     Generated by new atomic code, or converted to UPF format
     Using radial grid of  737 points,  4 beta functions with: 
                l(1) =   0
                l(2) =   0
                l(3) =   1
                l(4) =   1
     Q(r) pseudized with  8 coefficients,  rinner =    0.800   0.800   0.800


     atomic species   valence    mass     pseudopotential
        O              6.00    15.99940     O ( 1.00)

      4 Sym. Ops., with inversion, found


                                    s                        frac. trans.

      isym =  1     identity                                     

 cryst.   s( 1) = (     1          0          0      )
                  (     0          1          0      )
                  (     0          0          1      )

 cart.    s( 1) = (  1.0000000  0.0000000  0.0000000 )
                  (  0.0000000  1.0000000  0.0000000 )
                  (  0.0000000  0.0000000  1.0000000 )


      isym =  2     180 deg rotation - cart. axis [0,1,0]        

 cryst.   s( 2) = (    -1          0          0      )
                  (     0          1          0      )
                  (     0          0         -1      )

 cart.    s( 2) = ( -1.0000000  0.0000000 -0.0000000 )
                  (  0.0000000  1.0000000  0.0000000 )
                  (  0.0000000  0.0000000 -1.0000000 )


      isym =  3     inversion                                    

 cryst.   s( 3) = (    -1          0          0      )
                  (     0         -1          0      )
                  (     0          0         -1      )

 cart.    s( 3) = ( -1.0000000  0.0000000 -0.0000000 )
                  (  0.0000000 -1.0000000  0.0000000 )
                  (  0.0000000  0.0000000 -1.0000000 )


      isym =  4     inv. 180 deg rotation - cart. axis [0,1,0]   

 cryst.   s( 4) = (     1          0          0      )
                  (     0         -1          0      )
                  (     0          0          1      )

 cart.    s( 4) = (  1.0000000  0.0000000  0.0000000 )
                  (  0.0000000 -1.0000000  0.0000000 )
                  (  0.0000000  0.0000000  1.0000000 )


     point group C_2h (2/m) 
     there are  4 classes
     the character table:

       E     C2    i     s_h  
A_g    1.00  1.00  1.00  1.00
B_g    1.00 -1.00  1.00 -1.00
A_u    1.00  1.00 -1.00 -1.00
B_u    1.00 -1.00 -1.00  1.00

     the symmetry operations in each class and the name of the first element:

     E        1
          identity                                               
     C2       2
          180 deg rotation - cart. axis [0,1,0]                  
     i        3
          inversion                                              
     s_h      4
          inv. 180 deg rotation - cart. axis [0,1,0]             

   Cartesian axes

     site n.     atom                  positions (alat units)
         1           O   tau(   1) = (  -0.0132155   0.0000000   0.1251548  )
         2           O   tau(   2) = (   0.4867845   0.2770555   0.1251548  )
         3           O   tau(   3) = (  -0.1548599   0.2770555   0.6928505  )
         4           O   tau(   4) = (   0.3451401   0.0000000   0.6928505  )

   Crystallographic axes

     site n.     atom                  positions (cryst. coord.)
         1           O   tau(   1) = (  0.0890000  0.0000000  0.1530000  )
         2           O   tau(   2) = (  0.5890000  0.5000000  0.1530000  )
         3           O   tau(   3) = (  0.4110000  0.5000000  0.8470000  )
         4           O   tau(   4) = (  0.9110000  0.0000000  0.8470000  )

     number of k points=    40  gaussian smearing, width (Ry)=  0.0100
                       cart. coord. in units 2pi/alat
        k(    1) = (   0.0000000   0.0000000   0.0000000), wk =   0.0208333
        k(    2) = (   0.0000000   0.0000000   0.3056215), wk =   0.0416667
        k(    3) = (   0.0000000   0.0000000  -0.6112430), wk =   0.0208333
        k(    4) = (   0.0000000   0.3007821   0.0000000), wk =   0.0416667
        k(    5) = (   0.0000000   0.3007821   0.3056215), wk =   0.0833333
        k(    6) = (   0.0000000   0.3007821  -0.6112430), wk =   0.0416667
        k(    7) = (   0.0000000   0.6015641   0.0000000), wk =   0.0416667
        k(    8) = (   0.0000000   0.6015641   0.3056215), wk =   0.0833333
        k(    9) = (   0.0000000   0.6015641  -0.6112430), wk =   0.0416667
        k(   10) = (   0.0000000  -0.9023462   0.0000000), wk =   0.0208333
        k(   11) = (   0.0000000  -0.9023462   0.3056215), wk =   0.0416667
        k(   12) = (   0.0000000  -0.9023462  -0.6112430), wk =   0.0208333
        k(   13) = (   0.2500000   0.0000000   0.2041782), wk =   0.0416667
        k(   14) = (   0.2500000   0.0000000   0.5097997), wk =   0.0416667
        k(   15) = (   0.2500000   0.0000000  -0.4070648), wk =   0.0416667
        k(   16) = (   0.2500000   0.0000000  -0.1014433), wk =   0.0416667
        k(   17) = (   0.2500000   0.3007821   0.2041782), wk =   0.0833333
        k(   18) = (   0.2500000   0.3007821   0.5097997), wk =   0.0833333
        k(   19) = (   0.2500000   0.3007821  -0.4070648), wk =   0.0833333
        k(   20) = (   0.2500000   0.3007821  -0.1014433), wk =   0.0833333
        k(   21) = (   0.2500000   0.6015641   0.2041782), wk =   0.0833333
        k(   22) = (   0.2500000   0.6015641   0.5097997), wk =   0.0833333
        k(   23) = (   0.2500000   0.6015641  -0.4070648), wk =   0.0833333
        k(   24) = (   0.2500000   0.6015641  -0.1014433), wk =   0.0833333
        k(   25) = (   0.2500000  -0.9023462   0.2041782), wk =   0.0416667
        k(   26) = (   0.2500000  -0.9023462   0.5097997), wk =   0.0416667
        k(   27) = (   0.2500000  -0.9023462  -0.4070648), wk =   0.0416667
        k(   28) = (   0.2500000  -0.9023462  -0.1014433), wk =   0.0416667
        k(   29) = (  -0.5000000   0.0000000  -0.4083564), wk =   0.0208333
        k(   30) = (  -0.5000000   0.0000000  -0.1027349), wk =   0.0416667
        k(   31) = (  -0.5000000   0.0000000  -1.0195994), wk =   0.0208333
        k(   32) = (  -0.5000000   0.3007821  -0.4083564), wk =   0.0416667
        k(   33) = (  -0.5000000   0.3007821  -0.1027349), wk =   0.0833333
        k(   34) = (  -0.5000000   0.3007821  -1.0195994), wk =   0.0416667
        k(   35) = (  -0.5000000   0.6015641  -0.4083564), wk =   0.0416667
        k(   36) = (  -0.5000000   0.6015641  -0.1027349), wk =   0.0833333
        k(   37) = (  -0.5000000   0.6015641  -1.0195994), wk =   0.0416667
        k(   38) = (  -0.5000000  -0.9023462  -0.4083564), wk =   0.0208333
        k(   39) = (  -0.5000000  -0.9023462  -0.1027349), wk =   0.0416667
        k(   40) = (  -0.5000000  -0.9023462  -1.0195994), wk =   0.0208333

                       cryst. coord.
        k(    1) = (   0.0000000   0.0000000   0.0000000), wk =   0.0208333
        k(    2) = (   0.0000000   0.0000000   0.2500000), wk =   0.0416667
        k(    3) = (   0.0000000   0.0000000  -0.5000000), wk =   0.0208333
        k(    4) = (   0.0000000   0.1666667   0.0000000), wk =   0.0416667
        k(    5) = (   0.0000000   0.1666667   0.2500000), wk =   0.0833333
        k(    6) = (   0.0000000   0.1666667  -0.5000000), wk =   0.0416667
        k(    7) = (   0.0000000   0.3333333   0.0000000), wk =   0.0416667
        k(    8) = (   0.0000000   0.3333333   0.2500000), wk =   0.0833333
        k(    9) = (   0.0000000   0.3333333  -0.5000000), wk =   0.0416667
        k(   10) = (   0.0000000  -0.5000000   0.0000000), wk =   0.0208333
        k(   11) = (   0.0000000  -0.5000000   0.2500000), wk =   0.0416667
        k(   12) = (   0.0000000  -0.5000000  -0.5000000), wk =   0.0208333
        k(   13) = (   0.2500000   0.0000000   0.0000000), wk =   0.0416667
        k(   14) = (   0.2500000   0.0000000   0.2500000), wk =   0.0416667
        k(   15) = (   0.2500000   0.0000000  -0.5000000), wk =   0.0416667
        k(   16) = (   0.2500000   0.0000000  -0.2500000), wk =   0.0416667
        k(   17) = (   0.2500000   0.1666667   0.0000000), wk =   0.0833333
        k(   18) = (   0.2500000   0.1666667   0.2500000), wk =   0.0833333
        k(   19) = (   0.2500000   0.1666667  -0.5000000), wk =   0.0833333
        k(   20) = (   0.2500000   0.1666667  -0.2500000), wk =   0.0833333
        k(   21) = (   0.2500000   0.3333333   0.0000000), wk =   0.0833333
        k(   22) = (   0.2500000   0.3333333   0.2500000), wk =   0.0833333
        k(   23) = (   0.2500000   0.3333333  -0.5000000), wk =   0.0833333
        k(   24) = (   0.2500000   0.3333333  -0.2500000), wk =   0.0833333
        k(   25) = (   0.2500000  -0.5000000   0.0000000), wk =   0.0416667
        k(   26) = (   0.2500000  -0.5000000   0.2500000), wk =   0.0416667
        k(   27) = (   0.2500000  -0.5000000  -0.5000000), wk =   0.0416667
        k(   28) = (   0.2500000  -0.5000000  -0.2500000), wk =   0.0416667
        k(   29) = (  -0.5000000   0.0000000   0.0000000), wk =   0.0208333
        k(   30) = (  -0.5000000   0.0000000   0.2500000), wk =   0.0416667
        k(   31) = (  -0.5000000   0.0000000  -0.5000000), wk =   0.0208333
        k(   32) = (  -0.5000000   0.1666667   0.0000000), wk =   0.0416667
        k(   33) = (  -0.5000000   0.1666667   0.2500000), wk =   0.0833333
        k(   34) = (  -0.5000000   0.1666667  -0.5000000), wk =   0.0416667
        k(   35) = (  -0.5000000   0.3333333   0.0000000), wk =   0.0416667
        k(   36) = (  -0.5000000   0.3333333   0.2500000), wk =   0.0833333
        k(   37) = (  -0.5000000   0.3333333  -0.5000000), wk =   0.0416667
        k(   38) = (  -0.5000000  -0.5000000   0.0000000), wk =   0.0208333
        k(   39) = (  -0.5000000  -0.5000000   0.2500000), wk =   0.0416667
        k(   40) = (  -0.5000000  -0.5000000  -0.5000000), wk =   0.0208333

     Dense  grid:    19425 G-vectors     FFT dimensions: (  45,  25,  45)

     Smooth grid:     5749 G-vectors     FFT dimensions: (  30,  18,  32)

     Dynamical RAM for                 wfc:       0.02 MB

     Dynamical RAM for     wfc (w. buffer):       0.90 MB

     Dynamical RAM for           str. fact:       0.04 MB

     Dynamical RAM for           local pot:       0.00 MB

     Dynamical RAM for          nlocal pot:       0.04 MB

     Dynamical RAM for                qrad:       1.00 MB

     Dynamical RAM for          rho,v,vnew:       0.27 MB

     Dynamical RAM for               rhoin:       0.09 MB

     Dynamical RAM for            rho*nmix:       0.59 MB

     Dynamical RAM for           G-vectors:       0.14 MB

     Dynamical RAM for          h,s,v(r/c):       0.19 MB

     Dynamical RAM for          <psi|beta>:       0.01 MB

     Dynamical RAM for                 psi:       0.09 MB

     Dynamical RAM for                hpsi:       0.09 MB

     Dynamical RAM for                spsi:       0.09 MB

     Dynamical RAM for      wfcinit/wfcrot:       0.05 MB

     Dynamical RAM for           addusdens:       1.74 MB

     Dynamical RAM for          addusforce:       1.99 MB

     Dynamical RAM for         addusstress:       1.85 MB

     Estimated static dynamical RAM per process >       3.40 MB

     Estimated max dynamical RAM per process >       5.39 MB

     Estimated total dynamical RAM >      43.10 MB

     Initial potential from superposition of free atoms

     starting charge   23.99999, renormalised to   24.00000
     Starting wfcs are   16 randomized atomic wfcs

     total cpu time spent up to now is        1.1 secs

     Self-consistent Calculation

     iteration #  1     ecut=    35.00 Ry     beta= 0.40
     Davidson diagonalization with overlap
     ethr =  1.00E-02,  avg # of iterations =  4.1

     Threshold (ethr) on eigenvalues was too large:
     Diagonalizing with lowered threshold

     Davidson diagonalization with overlap
     ethr =  8.63E-04,  avg # of iterations =  1.1

     total cpu time spent up to now is        2.0 secs

     total energy              =    -127.23511128 Ry
     Harris-Foulkes estimate   =    -127.32533100 Ry
     estimated scf accuracy    <       0.20838223 Ry

     iteration #  2     ecut=    35.00 Ry     beta= 0.40
     Davidson diagonalization with overlap
     ethr =  8.68E-04,  avg # of iterations =  1.2

     total cpu time spent up to now is        2.3 secs

     total energy              =    -127.22717922 Ry
     Harris-Foulkes estimate   =    -127.24715963 Ry
     estimated scf accuracy    <       0.03830997 Ry

     iteration #  3     ecut=    35.00 Ry     beta= 0.40
     Davidson diagonalization with overlap
     ethr =  1.60E-04,  avg # of iterations =  2.4

     total cpu time spent up to now is        2.7 secs

     total energy              =    -127.23652685 Ry
     Harris-Foulkes estimate   =    -127.23644326 Ry
     estimated scf accuracy    <       0.00084992 Ry

     iteration #  4     ecut=    35.00 Ry     beta= 0.40
     Davidson diagonalization with overlap
     ethr =  3.54E-06,  avg # of iterations =  4.3

     total cpu time spent up to now is        3.2 secs

     total energy              =    -127.23669985 Ry
     Harris-Foulkes estimate   =    -127.23658127 Ry
     estimated scf accuracy    <       0.00027398 Ry

     iteration #  5     ecut=    35.00 Ry     beta= 0.40
     Davidson diagonalization with overlap
     ethr =  1.14E-06,  avg # of iterations =  2.2

     total cpu time spent up to now is        3.5 secs

     total energy              =    -127.23671972 Ry
     Harris-Foulkes estimate   =    -127.23672781 Ry
     estimated scf accuracy    <       0.00007951 Ry

     iteration #  6     ecut=    35.00 Ry     beta= 0.40
     Davidson diagonalization with overlap
     ethr =  3.31E-07,  avg # of iterations =  1.0

     total cpu time spent up to now is        3.8 secs

     total energy              =    -127.23672694 Ry
     Harris-Foulkes estimate   =    -127.23672787 Ry
     estimated scf accuracy    <       0.00000665 Ry

     iteration #  7     ecut=    35.00 Ry     beta= 0.40
     Davidson diagonalization with overlap
     ethr =  2.77E-08,  avg # of iterations =  2.0

     total cpu time spent up to now is        4.2 secs

     End of self-consistent calculation

          k = 0.0000 0.0000 0.0000 (   713 PWs)   bands (ev):

   -26.6302 -25.4129  -6.9629  -6.4548  -5.2830  -4.0868  -1.2322  -0.4187
    -0.2028  -0.1654   5.1076  10.1806  10.3268  10.7092  20.4282  21.5976

     occupation numbers 
     1.0000   1.0000   1.0000   1.0000   1.0000   1.0000   1.0000   1.0000
     1.0000   1.0000   1.0000   0.0000   0.0000   0.0000   0.0000   0.0000

          k = 0.0000 0.0000 0.3056 (   707 PWs)   bands (ev):

   -26.6017 -25.4197  -8.0068  -6.1971  -5.3604  -2.6663  -1.1840  -0.7381
    -0.4331  -0.1870   5.6217   9.9934  10.3874  10.7980  19.6638  20.3413

     occupation numbers 
     1.0000   1.0000   1.0000   1.0000   1.0000   1.0000   1.0000   1.0000
     1.0000   1.0000   1.0000   0.0000   0.0000   0.0000   0.0000   0.0000

          k = 0.0000 0.0000-0.6112 (   710 PWs)   bands (ev):

   -26.5747 -25.4270  -8.6768  -6.0750  -5.1810  -1.5863  -1.4130  -1.1338
    -0.4494  -0.2112   6.2447   9.8083  10.4570  10.8863  18.1753  20.2187

     occupation numbers 
     1.0000   1.0000   1.0000   1.0000   1.0000   1.0000   1.0000   1.0000
     1.0000   1.0000   1.0000   0.0000   0.0000   0.0000   0.0000   0.0000

          k = 0.0000 0.3008 0.0000 (   720 PWs)   bands (ev):

   -26.3864 -25.3075  -6.6117  -6.0890  -4.9594  -4.1626  -2.5222  -0.7986
    -0.6352  -0.0415   5.5527   9.1412   9.6689  10.1721  21.5566  21.8917

     occupation numbers 
     1.0000   1.0000   1.0000   1.0000   1.0000   1.0000   1.0000   1.0000
     1.0000   1.0000   1.0000   0.0009   0.0000   0.0000   0.0000   0.0000

          k = 0.0000 0.3008 0.3056 (   725 PWs)   bands (ev):

   -26.3620 -25.3123  -7.5936  -5.8175  -5.0910  -3.0810  -2.5165  -0.6742
    -0.5762  -0.4293   6.0361   8.9151   9.7602  10.2485  20.0496  21.5838

     occupation numbers 
     1.0000   1.0000   1.0000   1.0000   1.0000   1.0000   1.0000   1.0000
     1.0000   1.0000   1.0000   0.2215   0.0000   0.0000   0.0000   0.0000

          k = 0.0000 0.3008-0.6112 (   718 PWs)   bands (ev):

   -26.3359 -25.3181  -8.2225  -5.6418  -5.0249  -2.5952  -2.4764  -0.8443
    -0.6738  -0.2330   6.6182   8.6651   9.8323  10.3325  18.7895  21.4245

     occupation numbers 
     1.0000   1.0000   1.0000   1.0000   1.0000   1.0000   1.0000   1.0000
     1.0000   1.0000   1.0000   0.9665   0.0000   0.0000   0.0000   0.0000

          k = 0.0000 0.6016 0.0000 (   730 PWs)   bands (ev):

   -25.8057 -25.1495  -5.7532  -5.2969  -4.8757  -4.5264  -4.0547  -1.3902
    -1.1455  -0.1382   6.7536   7.2356   7.6362   9.5378  21.9194  23.8245

     occupation numbers 
     1.0000   1.0000   1.0000   1.0000   1.0000   1.0000   1.0000   1.0000
     1.0000   1.0000   1.0000   1.0000   1.0000   0.0000   0.0000   0.0000

          k = 0.0000 0.6016 0.3056 (   722 PWs)   bands (ev):

   -25.7883 -25.1499  -6.5366  -5.1789  -4.4179  -4.4120  -4.2373  -1.4356
    -0.6387  -0.3002   6.9056   7.2624   7.7061   9.6809  20.9692  23.2703

     occupation numbers 
     1.0000   1.0000   1.0000   1.0000   1.0000   1.0000   1.0000   1.0000
     1.0000   1.0000   1.0000   1.0000   1.0000   0.0000   0.0000   0.0000

          k = 0.0000 0.6016-0.6112 (   720 PWs)   bands (ev):

   -25.7713 -25.1503  -7.0128  -4.9628  -4.4469  -4.3891  -4.2626  -1.4562
    -0.4348  -0.1183   6.7294   7.6001   7.7197   9.8276  20.4720  23.0423

     occupation numbers 
     1.0000   1.0000   1.0000   1.0000   1.0000   1.0000   1.0000   1.0000
     1.0000   1.0000   1.0000   1.0000   1.0000   0.0000   0.0000   0.0000

          k = 0.0000-0.9023 0.0000 (   716 PWs)   bands (ev):

   -25.2808 -25.2805  -5.4294  -5.4292  -5.0544  -5.0543  -2.6915  -2.6913
    -0.6117  -0.6116   6.4696   6.4698   8.2861   8.2862  22.8031  22.8031

     occupation numbers 
     1.0000   1.0000   1.0000   1.0000   1.0000   1.0000   1.0000   1.0000
     1.0000   1.0000   1.0000   1.0000   1.0000   1.0000   0.0000   0.0000

          k = 0.0000-0.9023 0.3056 (   726 PWs)   bands (ev):

   -25.2738 -25.2735  -5.5947  -5.5946  -5.0306  -5.0305  -2.7803  -2.7801
    -0.3962  -0.3962   6.4056   6.4058   8.5574   8.5576  22.2525  22.2526

     occupation numbers 
     1.0000   1.0000   1.0000   1.0000   1.0000   1.0000   1.0000   1.0000
     1.0000   1.0000   1.0000   1.0000   0.9984   0.9984   0.0000   0.0000

          k = 0.0000-0.9023-0.6112 (   732 PWs)   bands (ev):

   -25.2670 -25.2667  -5.6179  -5.6178  -5.1887  -5.1885  -2.8332  -2.8331
    -0.1347  -0.1346   6.2645   6.2647   8.8287   8.8288  22.9106  22.9107

     occupation numbers 
     1.0000   1.0000   1.0000   1.0000   1.0000   1.0000   1.0000   1.0000
     1.0000   1.0000   1.0000   1.0000   0.5524   0.5518   0.0000   0.0000

          k = 0.2500 0.0000 0.2042 (   707 PWs)   bands (ev):

   -26.4573 -25.5983  -7.2761  -6.5512  -5.2319  -3.5311  -1.0719  -0.8432
    -0.3164  -0.2695   6.2507   9.8570  10.2059  10.5790  20.7878  21.2331

     occupation numbers 
     1.0000   1.0000   1.0000   1.0000   1.0000   1.0000   1.0000   1.0000
     1.0000   1.0000   1.0000   0.0000   0.0000   0.0000   0.0000   0.0000

          k = 0.2500 0.0000 0.5098 (   704 PWs)   bands (ev):

   -26.4223 -25.6125  -8.2872  -5.8942  -5.4926  -2.3977  -1.1385  -1.0070
    -0.4576  -0.3555   6.8915   9.8503   9.9629  10.7246  18.7868  21.1028

     occupation numbers 
     1.0000   1.0000   1.0000   1.0000   1.0000   1.0000   1.0000   1.0000
     1.0000   1.0000   1.0000   0.0000   0.0000   0.0000   0.0000   0.0000

          k = 0.2500 0.0000-0.4071 (   706 PWs)   bands (ev):

   -26.4313 -25.6226  -8.0980  -5.8254  -5.2484  -2.5275  -1.3950  -1.0201
    -0.5686  -0.3695   6.5005   9.5942  10.0084  10.7717  19.1892  21.2041

     occupation numbers 
     1.0000   1.0000   1.0000   1.0000   1.0000   1.0000   1.0000   1.0000
     1.0000   1.0000   1.0000   0.0000   0.0000   0.0000   0.0000   0.0000

          k = 0.2500 0.0000-0.1014 (   721 PWs)   bands (ev):

   -26.4672 -25.6086  -6.9399  -6.4626  -5.0367  -3.8808  -1.0861  -0.8721
    -0.5187  -0.3308   5.9257   9.6076  10.2515  10.6255  21.2363  21.4083

     occupation numbers 
     1.0000   1.0000   1.0000   1.0000   1.0000   1.0000   1.0000   1.0000
     1.0000   1.0000   1.0000   0.0000   0.0000   0.0000   0.0000   0.0000

          k = 0.2500 0.3008 0.2042 (   723 PWs)   bands (ev):

   -26.2308 -25.4692  -6.9105  -6.2370  -4.9863  -3.8302  -2.2196  -0.9077
    -0.7880  -0.0735   6.4768   9.0881   9.2653  10.2064  21.0333  22.0123

     occupation numbers 
     1.0000   1.0000   1.0000   1.0000   1.0000   1.0000   1.0000   1.0000
     1.0000   1.0000   1.0000   0.0052   0.0000   0.0000   0.0000   0.0000

          k = 0.2500 0.3008 0.5098 (   717 PWs)   bands (ev):

   -26.1996 -25.4805  -7.8550  -5.6576  -5.2344  -3.0703  -2.2494  -0.8413
    -0.6933  -0.2812   7.0290   9.0061   9.1842  10.2828  19.3585  21.9135

     occupation numbers 
     1.0000   1.0000   1.0000   1.0000   1.0000   1.0000   1.0000   1.0000
     1.0000   1.0000   1.0000   0.0434   0.0002   0.0000   0.0000   0.0000

          k = 0.2500 0.3008-0.4071 (   714 PWs)   bands (ev):

   -26.2078 -25.4891  -7.6776  -5.5999  -5.0283  -3.1392  -2.2375  -0.9350
    -0.8012  -0.5008   6.7517   9.0031   9.1607  10.1718  19.6374  22.0973

     occupation numbers 
     1.0000   1.0000   1.0000   1.0000   1.0000   1.0000   1.0000   1.0000
     1.0000   1.0000   1.0000   0.0463   0.0005   0.0000   0.0000   0.0000

          k = 0.2500 0.3008-0.1014 (   720 PWs)   bands (ev):

   -26.2395 -25.4783  -6.5994  -6.1685  -4.8033  -4.0666  -2.2067  -1.0596
    -0.7724  -0.3243   6.2385   9.0922   9.2892  10.0726  21.3397  21.7156

     occupation numbers 
     1.0000   1.0000   1.0000   1.0000   1.0000   1.0000   1.0000   1.0000
     1.0000   1.0000   1.0000   0.0046   0.0000   0.0000   0.0000   0.0000

          k = 0.2500 0.6016 0.2042 (   726 PWs)   bands (ev):

   -25.7040 -25.2404  -6.0302  -5.5550  -5.1309  -4.9415  -3.0444  -1.2959
    -0.8853  -0.1118   6.3074   7.0409   8.3787   9.8326  21.5988  23.1853

     occupation numbers 
     1.0000   1.0000   1.0000   1.0000   1.0000   1.0000   1.0000   1.0000
     1.0000   1.0000   1.0000   1.0000   1.0000   0.0000   0.0000   0.0000

          k = 0.2500 0.6016 0.5098 (   724 PWs)   bands (ev):

   -25.6834 -25.2446  -6.7316  -5.2922  -5.1982  -4.6927  -3.0742  -1.3195
    -0.4171  -0.2283   6.2883   7.1707   8.5546   9.9342  20.8801  22.7280

     occupation numbers 
     1.0000   1.0000   1.0000   1.0000   1.0000   1.0000   1.0000   1.0000
     1.0000   1.0000   1.0000   1.0000   0.9986   0.0000   0.0000   0.0000

          k = 0.2500 0.6016-0.4071 (   730 PWs)   bands (ev):

   -25.6903 -25.2516  -6.6039  -5.4951  -4.8258  -4.6826  -3.0309  -1.2709
    -0.6252  -0.4819   6.4648   7.3572   8.2405   9.7261  20.8438  22.5193

     occupation numbers 
     1.0000   1.0000   1.0000   1.0000   1.0000   1.0000   1.0000   1.0000
     1.0000   1.0000   1.0000   1.0000   1.0000   0.0000   0.0000   0.0000

          k = 0.2500 0.6016-0.1014 (   721 PWs)   bands (ev):

   -25.7108 -25.2470  -5.8509  -5.6881  -4.9335  -4.8169  -3.0079  -1.3099
    -1.1266  -0.3427   6.4939   7.2424   8.1133   9.6263  21.5913  22.2892

     occupation numbers 
     1.0000   1.0000   1.0000   1.0000   1.0000   1.0000   1.0000   1.0000
     1.0000   1.0000   1.0000   1.0000   1.0000   0.0000   0.0000   0.0000

          k = 0.2500-0.9023 0.2042 (   718 PWs)   bands (ev):

   -25.2713 -25.2710  -5.7274  -5.7272  -5.2707  -5.2706  -2.1528  -2.1527
    -0.4593  -0.4592   5.8140   5.8141   9.1134   9.1135  22.3136  22.3136

     occupation numbers 
     1.0000   1.0000   1.0000   1.0000   1.0000   1.0000   1.0000   1.0000
     1.0000   1.0000   1.0000   1.0000   0.0023   0.0023   0.0000   0.0000

          k = 0.2500-0.9023 0.5098 (   724 PWs)   bands (ev):

   -25.2639 -25.2636  -5.6598  -5.6597  -5.5146  -5.5146  -2.1999  -2.1998
    -0.2420  -0.2419   5.8055   5.8056   9.3185   9.3186  22.4099  22.4099

     occupation numbers 
     1.0000   1.0000   1.0000   1.0000   1.0000   1.0000   1.0000   1.0000
     1.0000   1.0000   1.0000   1.0000   0.0000   0.0000   0.0000   0.0000

          k = 0.2500-0.9023-0.4071 (   732 PWs)   bands (ev):

   -25.2701 -25.2698  -5.8666  -5.8665  -5.1736  -5.1736  -2.1781  -2.1780
    -0.4347  -0.4346   6.0403   6.0404   9.0680   9.0681  22.3115  22.3116

     occupation numbers 
     1.0000   1.0000   1.0000   1.0000   1.0000   1.0000   1.0000   1.0000
     1.0000   1.0000   1.0000   1.0000   0.0092   0.0092   0.0000   0.0000

          k = 0.2500-0.9023-0.1014 (   710 PWs)   bands (ev):

   -25.2762 -25.2759  -5.9024  -5.9022  -4.9200  -4.9199  -2.1456  -2.1455
    -0.6921  -0.6920   6.0897   6.0899   8.8632   8.8632  22.1264  22.1265

     occupation numbers 
     1.0000   1.0000   1.0000   1.0000   1.0000   1.0000   1.0000   1.0000
     1.0000   1.0000   1.0000   1.0000   0.4102   0.4099   0.0000   0.0000

          k =-0.5000 0.0000-0.4084 (   708 PWs)   bands (ev):

   -26.0342 -26.0339  -7.2276  -7.2275  -4.0303  -4.0303  -0.7144  -0.7143
    -0.6912  -0.6910   8.3852   8.3853  10.3390  10.3391  20.3256  20.3256

     occupation numbers 
     1.0000   1.0000   1.0000   1.0000   1.0000   1.0000   1.0000   1.0000
     1.0000   1.0000   1.0000   1.0000   0.0000   0.0000   0.0000   0.0000

          k =-0.5000 0.0000-0.1027 (   710 PWs)   bands (ev):

   -26.0615 -26.0258  -7.5188  -6.2166  -4.5917  -3.8306  -1.4817  -0.7413
    -0.6661  -0.3111   7.9003   8.2773  10.2486  10.5236  19.7927  21.4910

     occupation numbers 
     1.0000   1.0000   1.0000   1.0000   1.0000   1.0000   1.0000   1.0000
     1.0000   1.0000   1.0000   1.0000   0.0000   0.0000   0.0000   0.0000

          k =-0.5000 0.0000-1.0196 (   718 PWs)   bands (ev):

   -26.0538 -26.0535  -6.7446  -6.7445  -4.1494  -4.1494  -1.1043  -1.1043
    -0.7179  -0.7177   7.8100   7.8101  10.4328  10.4330  20.9689  20.9689

     occupation numbers 
     1.0000   1.0000   1.0000   1.0000   1.0000   1.0000   1.0000   1.0000
     1.0000   1.0000   1.0000   1.0000   0.0000   0.0000   0.0000   0.0000

          k =-0.5000 0.3008-0.4084 (   714 PWs)   bands (ev):

   -25.8531 -25.8528  -6.8669  -6.8669  -4.2269  -4.2269  -1.4949  -1.4948
    -0.4374  -0.4374   8.0355   8.0356   9.7420   9.7420  20.7722  20.7722

     occupation numbers 
     1.0000   1.0000   1.0000   1.0000   1.0000   1.0000   1.0000   1.0000
     1.0000   1.0000   1.0000   1.0000   0.0000   0.0000   0.0000   0.0000

          k =-0.5000 0.3008-0.1027 (   718 PWs)   bands (ev):

   -25.8769 -25.8464  -7.1331  -5.9367  -4.7121  -4.0588  -1.5226  -1.4839
    -1.0930  -0.1514   7.7781   7.9833   9.5980   9.7996  20.3091  21.6769

     occupation numbers 
     1.0000   1.0000   1.0000   1.0000   1.0000   1.0000   1.0000   1.0000
     1.0000   1.0000   1.0000   1.0000   0.0000   0.0000   0.0000   0.0000

          k =-0.5000 0.3008-1.0196 (   718 PWs)   bands (ev):

   -25.8706 -25.8703  -6.4369  -6.4368  -4.2982  -4.2982  -1.4506  -1.4505
    -0.9038  -0.9037   7.7469   7.7470   9.6740   9.6742  21.1173  21.1173

     occupation numbers 
     1.0000   1.0000   1.0000   1.0000   1.0000   1.0000   1.0000   1.0000
     1.0000   1.0000   1.0000   1.0000   0.0000   0.0000   0.0000   0.0000

          k =-0.5000 0.6016-0.4084 (   734 PWs)   bands (ev):

   -25.4673 -25.4670  -6.0284  -6.0283  -5.2375  -5.2374  -1.7981  -1.7980
    -0.3500  -0.3499   6.4148   6.4149   9.5929   9.5929  21.8439  21.8439

     occupation numbers 
     1.0000   1.0000   1.0000   1.0000   1.0000   1.0000   1.0000   1.0000
     1.0000   1.0000   1.0000   1.0000   0.0000   0.0000   0.0000   0.0000

          k =-0.5000 0.6016-0.1027 (   720 PWs)   bands (ev):

   -25.4823 -25.4647  -6.1985  -5.4972  -5.3508  -5.1710  -1.7669  -1.7521
    -0.8992  -0.2151   6.4088   6.5833   9.3709   9.4337  21.7303  21.9447

     occupation numbers 
     1.0000   1.0000   1.0000   1.0000   1.0000   1.0000   1.0000   1.0000
     1.0000   1.0000   1.0000   1.0000   0.0000   0.0000   0.0000   0.0000

          k =-0.5000 0.6016-1.0196 (   724 PWs)   bands (ev):

   -25.4809 -25.4806  -5.9386  -5.9385  -4.9713  -4.9713  -1.7375  -1.7375
    -0.8413  -0.8412   6.6832   6.6833   9.2111   9.2111  21.4214  21.4214

     occupation numbers 
     1.0000   1.0000   1.0000   1.0000   1.0000   1.0000   1.0000   1.0000
     1.0000   1.0000   1.0000   1.0000   0.0001   0.0001   0.0000   0.0000

          k =-0.5000-0.9023-0.4084 (   728 PWs)   bands (ev):

   -25.2610 -25.2607  -5.9588  -5.9587  -5.4645  -5.4644  -1.6511  -1.6510
    -0.3795  -0.3794   5.4526   5.4527   9.6947   9.6948  21.5554  21.5555

     occupation numbers 
     1.0000   1.0000   1.0000   1.0000   1.0000   1.0000   1.0000   1.0000
     1.0000   1.0000   1.0000   1.0000   0.0000   0.0000   0.0000   0.0000

          k =-0.5000-0.9023-0.1027 (   732 PWs)   bands (ev):

   -25.2673 -25.2670  -6.0454  -6.0453  -5.2639  -5.2638  -1.5988  -1.5987
    -0.5465  -0.5464   5.5645   5.5646   9.5053   9.5054  21.7828  21.7828

     occupation numbers 
     1.0000   1.0000   1.0000   1.0000   1.0000   1.0000   1.0000   1.0000
     1.0000   1.0000   1.0000   1.0000   0.0000   0.0000   0.0000   0.0000

          k =-0.5000-0.9023-1.0196 (   724 PWs)   bands (ev):

   -25.2717 -25.2714  -6.2095  -6.2094  -4.8939  -4.8938  -1.5451  -1.5450
    -0.8859  -0.8858   5.8332   5.8333   9.3197   9.3198  21.6042  21.6046

     occupation numbers 
     1.0000   1.0000   1.0000   1.0000   1.0000   1.0000   1.0000   1.0000
     1.0000   1.0000   1.0000   1.0000   0.0000   0.0000   0.0000   0.0000

     the Fermi energy is     8.8413 ev

!    total energy              =    -127.23672921 Ry
     Harris-Foulkes estimate   =    -127.23672769 Ry
     estimated scf accuracy    <       0.00000037 Ry

     The total energy is the sum of the following terms:

     one-electron contribution =     -47.01049656 Ry
     hartree contribution      =      37.18337718 Ry
     xc contribution           =     -28.22966877 Ry
     ewald contribution        =     -89.17924315 Ry
     smearing contrib. (-TS)   =      -0.00069791 Ry

     convergence has been achieved in   7 iterations

     Forces acting on atoms (cartesian axes, Ry/au):

     atom    1 type  1   force =    -0.08972666    0.00000000    1.33524025
     atom    2 type  1   force =    -0.08969984    0.00000000    1.33507855
     atom    3 type  1   force =     0.08969984    0.00000000   -1.33507855
     atom    4 type  1   force =     0.08972666    0.00000000   -1.33524025
     The non-local contrib.  to forces
     atom    1 type  1   force =     0.41705412    0.00000000   -3.54049010
     atom    2 type  1   force =     0.41707393    0.00000000   -3.54064397
     atom    3 type  1   force =    -0.41707393    0.00000000    3.54064397
     atom    4 type  1   force =    -0.41705412    0.00000000    3.54049010
     The ionic contribution  to forces
     atom    1 type  1   force =    -1.41526524   -0.00000000   18.15487704
     atom    2 type  1   force =    -1.41526524    0.00000000   18.15487704
     atom    3 type  1   force =     1.41526524   -0.00000000  -18.15487704
     atom    4 type  1   force =     1.41526524    0.00000000  -18.15487704
     The local contribution  to forces
     atom    1 type  1   force =     0.90863898    0.00000000  -13.27773977
     atom    2 type  1   force =     0.90860752    0.00000000  -13.27758689
     atom    3 type  1   force =    -0.90860752    0.00000000   13.27758689
     atom    4 type  1   force =    -0.90863898    0.00000000   13.27773977
     The core correction contribution to forces
     atom    1 type  1   force =     0.00000000    0.00000000    0.00000000
     atom    2 type  1   force =     0.00000000    0.00000000    0.00000000
     atom    3 type  1   force =     0.00000000    0.00000000    0.00000000
     atom    4 type  1   force =     0.00000000    0.00000000    0.00000000
     The Hubbard contrib.    to forces
     atom    1 type  1   force =     0.00000000    0.00000000    0.00000000
     atom    2 type  1   force =     0.00000000    0.00000000    0.00000000
     atom    3 type  1   force =     0.00000000    0.00000000    0.00000000
     atom    4 type  1   force =     0.00000000    0.00000000    0.00000000
     The SCF correction term to forces
     atom    1 type  1   force =    -0.00015452    0.00000000   -0.00140691
     atom    2 type  1   force =    -0.00011604   -0.00000000   -0.00156762
     atom    3 type  1   force =     0.00011604   -0.00000000    0.00156762
     atom    4 type  1   force =     0.00015452    0.00000000    0.00140691

     Total force =     2.676340     Total SCF correction =     0.002991


     Computing stress (Cartesian axis) and pressure

          total   stress  (Ry/bohr**3)                   (kbar)     P= 1445.64
   0.00187970   0.00000000  -0.00169632        276.51      0.00   -249.54
   0.00000000   0.00157395   0.00000000          0.00    231.54      0.00
  -0.00169632   0.00000000   0.02602810       -249.54      0.00   3828.87

     kinetic stress (kbar)  27655.25      0.00    428.08
                                0.00  27440.97      0.00
                              428.08      0.00  25175.15

     local   stress (kbar) -19466.89      0.00   4073.78
                                0.00 -21139.11     -0.00
                             4073.78     -0.00 -24369.99

     nonloc. stress (kbar)  15723.67      0.00    226.96
                                0.00  15628.35      0.00
                              226.96      0.00  13884.84

     hartree stress (kbar)  10161.49      0.00   -917.84
                                0.00  10871.54      0.00
                             -917.84      0.00   5519.64

     exc-cor stress (kbar)  -6389.10      0.00    -14.27
                                0.00  -6386.15      0.00
                              -14.27      0.00  -6289.81

     corecor stress (kbar)      0.00      0.00      0.00
                                0.00      0.00      0.00
                                0.00      0.00      0.00

     ewald   stress (kbar) -27407.91     -0.00  -4046.25
                               -0.00 -26184.07      0.00
                            -4046.25      0.00 -10090.96

     hubbard stress (kbar)      0.00      0.00      0.00
                                0.00      0.00      0.00
                                0.00      0.00      0.00

     london  stress (kbar)      0.00      0.00      0.00
                                0.00      0.00      0.00
                                0.00      0.00      0.00

     DFT-D3  stress (kbar)      0.00      0.00      0.00
                                0.00      0.00      0.00
                                0.00      0.00      0.00

     XDM     stress (kbar)      0.00      0.00      0.00
                                0.00      0.00      0.00
                                0.00      0.00      0.00

     dft-nl  stress (kbar)      0.00      0.00      0.00
                                0.00      0.00      0.00
                                0.00      0.00      0.00

     TS-vdW  stress (kbar)      0.00      0.00      0.00
                                0.00      0.00      0.00
                                0.00      0.00      0.00



     BFGS Geometry Optimization

     number of scf cycles    =   1
     number of bfgs steps    =   0

     enthalpy new            =    -126.8166203153 Ry

     new trust radius        =       0.5000000000 bohr
     new conv_thr            =       0.0000010000 Ry

     new unit-cell volume =    240.66817 a.u.^3 (    35.66334 Ang^3 )
     density =      2.97982 g/cm^3

CELL_PARAMETERS (alat=  7.68844337)
   0.998843622   0.000000000  -0.012286325
   0.000000000   0.552243201   0.000000000
  -0.677353146   0.000000000   0.968341292

ATOMIC_POSITIONS (crystal)
O        0.126711691   0.000000000   0.214509215
O        0.626707725   0.500000000   0.214501766
O        0.373292275   0.500000000   0.785498234
O        0.873288309   0.000000000   0.785490785



     Writing output data file O2alpha.save/
     NEW-OLD atomic charge density approx. for the potential
     extrapolated charge   27.45714, renormalised to   24.00000

     total cpu time spent up to now is        4.6 secs

     Self-consistent Calculation

     iteration #  1     ecut=    35.00 Ry     beta= 0.40
     Davidson diagonalization with overlap
     ethr =  1.00E-06,  avg # of iterations =  6.7

     total cpu time spent up to now is        5.7 secs

     total energy              =    -125.74184932 Ry
     Harris-Foulkes estimate   =    -125.34413423 Ry
     estimated scf accuracy    <       2.12267310 Ry

     iteration #  2     ecut=    35.00 Ry     beta= 0.40
     Davidson diagonalization with overlap
     ethr =  8.84E-03,  avg # of iterations =  2.8

     total cpu time spent up to now is        6.2 secs

     total energy              =    -127.22272187 Ry
     Harris-Foulkes estimate   =    -127.34972482 Ry
     estimated scf accuracy    <       0.35959048 Ry

     iteration #  3     ecut=    35.00 Ry     beta= 0.40
     Davidson diagonalization with overlap
     ethr =  1.50E-03,  avg # of iterations =  1.2

     total cpu time spent up to now is        6.5 secs

     total energy              =    -127.18236419 Ry
     Harris-Foulkes estimate   =    -127.24075204 Ry
     estimated scf accuracy    <       0.09392773 Ry

     iteration #  4     ecut=    35.00 Ry     beta= 0.40
     Davidson diagonalization with overlap
     ethr =  3.91E-04,  avg # of iterations =  2.0

     total cpu time spent up to now is        6.9 secs

     total energy              =    -127.21018071 Ry
     Harris-Foulkes estimate   =    -127.21348962 Ry
     estimated scf accuracy    <       0.02003605 Ry

     iteration #  5     ecut=    35.00 Ry     beta= 0.40
     Davidson diagonalization with overlap
     ethr =  8.35E-05,  avg # of iterations =  1.0

     total cpu time spent up to now is        7.2 secs

     total energy              =    -127.20640567 Ry
     Harris-Foulkes estimate   =    -127.21162097 Ry
     estimated scf accuracy    <       0.01633167 Ry

     iteration #  6     ecut=    35.00 Ry     beta= 0.40
     Davidson diagonalization with overlap
     ethr =  6.80E-05,  avg # of iterations =  1.0

     total cpu time spent up to now is        7.5 secs

     total energy              =    -127.20734939 Ry
     Harris-Foulkes estimate   =    -127.20775316 Ry
     estimated scf accuracy    <       0.00071239 Ry

     iteration #  7     ecut=    35.00 Ry     beta= 0.40
     Davidson diagonalization with overlap
     ethr =  2.97E-06,  avg # of iterations =  2.0

     total cpu time spent up to now is        7.9 secs

     total energy              =    -127.20760038 Ry
     Harris-Foulkes estimate   =    -127.20759103 Ry
     estimated scf accuracy    <       0.00004266 Ry

     iteration #  8     ecut=    35.00 Ry     beta= 0.40
     Davidson diagonalization with overlap
     ethr =  1.78E-07,  avg # of iterations =  2.0

     total cpu time spent up to now is        8.3 secs

     total energy              =    -127.20757901 Ry
     Harris-Foulkes estimate   =    -127.20761138 Ry
     estimated scf accuracy    <       0.00006265 Ry

     iteration #  9     ecut=    35.00 Ry     beta= 0.40
     Davidson diagonalization with overlap
     ethr =  1.78E-07,  avg # of iterations =  2.0

     total cpu time spent up to now is        8.8 secs

     End of self-consistent calculation

          k = 0.0000 0.0000 0.0000 (   713 PWs)   bands (ev):

   -17.6528 -14.8588 -12.9187 -11.5258  -3.4672  -2.2343  -0.2042   0.0755
     3.0187   4.0045   4.3189   4.9409   5.3004   5.3066   5.5869   6.5307

     occupation numbers 
     1.0000   1.0000   1.0000   1.0000   1.0000   1.0000   1.0000   1.0000
     1.0000   0.0185   0.0000   0.0000   0.0000   0.0000   0.0000   0.0000

          k = 0.0032 0.0000 0.2604 (   707 PWs)   bands (ev):

   -17.4374 -14.9566 -13.5021 -11.2802  -2.5793  -2.2820  -0.7747   0.4641
     3.1325   3.9386   4.2548   4.7941   5.2795   5.3694   5.6667   6.0489

     occupation numbers 
     1.0000   1.0000   1.0000   1.0000   1.0000   1.0000   1.0000   1.0000
     1.0000   0.0805   0.0000   0.0000   0.0000   0.0000   0.0000   0.0000

          k =-0.0064 0.0000-0.5208 (   710 PWs)   bands (ev):

   -17.1673 -15.0454 -14.0924 -11.0341  -2.7465  -1.5588  -0.6874   1.0235
     3.2694   3.4261   4.0863   4.1961   4.6229   5.4030   5.7396   6.6415

     occupation numbers 
     1.0000   1.0000   1.0000   1.0000   1.0000   1.0000   1.0000   1.0000
     1.0000   1.0000   0.0017   0.0000   0.0000   0.0000   0.0000   0.0000

          k = 0.0000 0.3018 0.0000 (   720 PWs)   bands (ev):

   -17.2079 -14.6532 -12.5495 -11.2736  -3.0784  -1.7518   0.0029   0.3189
     1.5595   2.9130   3.7550   3.7875   4.4911   5.1170   5.5555   6.6016

     occupation numbers 
     1.0000   1.0000   1.0000   1.0000   1.0000   1.0000   1.0000   1.0000
     1.0000   1.0000   0.6940   0.5671   0.0000   0.0000   0.0000   0.0000

          k = 0.0032 0.3018 0.2604 (   725 PWs)   bands (ev):

   -17.0033 -14.7339 -13.0980 -11.0684  -2.0903  -1.9689  -0.5696   0.8114
     1.6584   2.8240   3.6638   3.6975   4.5732   5.1607   5.4833   6.1373

     occupation numbers 
     1.0000   1.0000   1.0000   1.0000   1.0000   1.0000   1.0000   1.0000
     1.0000   1.0000   0.9271   0.8654   0.0000   0.0000   0.0000   0.0000

          k =-0.0064 0.3018-0.5208 (   718 PWs)   bands (ev):

   -16.7493 -14.8083 -13.6533 -10.8628  -2.2376  -1.2810  -0.4979   1.3292
     1.8682   2.7777   3.4224   3.4456   3.9842   4.8051   5.2286   6.6385

     occupation numbers 
     1.0000   1.0000   1.0000   1.0000   1.0000   1.0000   1.0000   1.0000
     1.0000   1.0000   1.0000   0.9999   0.0304   0.0000   0.0000   0.0000

          k = 0.0000 0.6036 0.0000 (   730 PWs)   bands (ev):

   -16.0459 -14.3619 -11.6289 -10.7827  -2.1535  -1.0351  -0.4441   0.0417
     0.3578   1.5477   1.8102   2.2408   2.9924   4.4030   6.0533   6.6636

     occupation numbers 
     1.0000   1.0000   1.0000   1.0000   1.0000   1.0000   1.0000   1.0000
     1.0000   1.0000   1.0000   1.0000   1.0000   0.0000   0.0000   0.0000

          k = 0.0032 0.6036 0.2604 (   722 PWs)   bands (ev):

   -15.8792 -14.3807 -12.0596 -10.7244  -1.2617  -0.9000  -0.7382  -0.1891
     0.2002   1.7192   1.8900   2.4080   2.8512   4.4902   5.8480   6.2517

     occupation numbers 
     1.0000   1.0000   1.0000   1.0000   1.0000   1.0000   1.0000   1.0000
     1.0000   1.0000   1.0000   1.0000   1.0000   0.0000   0.0000   0.0000

          k =-0.0064 0.6036-0.5208 (   720 PWs)   bands (ev):

   -15.6810 -14.3991 -12.4956 -10.6658  -1.0083  -0.8356  -0.1870  -0.1716
     0.1844   1.3946   2.2610   2.2743   2.7286   4.6055   4.9701   6.4634

     occupation numbers 
     1.0000   1.0000   1.0000   1.0000   1.0000   1.0000   1.0000   1.0000
     1.0000   1.0000   1.0000   1.0000   1.0000   0.0000   0.0000   0.0000

          k = 0.0000-0.9054 0.0000 (   716 PWs)   bands (ev):

   -14.7958 -14.7954 -10.7969 -10.7968  -1.8644  -1.8643  -0.4518  -0.4517
     0.8586   0.8588   1.5384   1.5387   3.0891   3.0892   6.5025   6.5028

     occupation numbers 
     1.0000   1.0000   1.0000   1.0000   1.0000   1.0000   1.0000   1.0000
     1.0000   1.0000   1.0000   1.0000   1.0000   1.0000   0.0000   0.0000

          k = 0.0032-0.9054 0.2604 (   726 PWs)   bands (ev):

   -14.7107 -14.7102 -11.0004 -11.0003  -1.5343  -1.5342  -0.6131  -0.6128
     1.1437   1.1440   1.2824   1.2826   3.2659   3.2659   6.1684   6.1688

     occupation numbers 
     1.0000   1.0000   1.0000   1.0000   1.0000   1.0000   1.0000   1.0000
     1.0000   1.0000   1.0000   1.0000   1.0000   1.0000   0.0000   0.0000

          k =-0.0064-0.9054-0.5208 (   732 PWs)   bands (ev):

   -14.6179 -14.6174 -11.2053 -11.2052  -1.4981  -1.4979   0.0137   0.0140
     0.8332   0.8334   1.0625   1.0628   3.5010   3.5011   5.8720   5.8724

     occupation numbers 
     1.0000   1.0000   1.0000   1.0000   1.0000   1.0000   1.0000   1.0000
     1.0000   1.0000   1.0000   1.0000   0.9992   0.9992   0.0000   0.0000

          k = 0.2525 0.0000 0.1766 (   707 PWs)   bands (ev):

   -17.2561 -15.2703 -12.9570 -12.0270  -2.6890  -1.5844  -0.1148   0.9943
     2.8656   3.2248   4.1505   4.6727   4.9930   5.1546   5.4429   6.0719

     occupation numbers 
     1.0000   1.0000   1.0000   1.0000   1.0000   1.0000   1.0000   1.0000
     1.0000   1.0000   0.0002   0.0000   0.0000   0.0000   0.0000   0.0000

          k = 0.2557 0.0000 0.4370 (   704 PWs)   bands (ev):

   -16.9273 -15.4513 -13.7246 -11.5965  -1.8434  -1.3110  -0.8335   1.5753
     2.7567   3.3928   4.0471   4.1126   4.7815   4.7910   5.5707   6.2482

     occupation numbers 
     1.0000   1.0000   1.0000   1.0000   1.0000   1.0000   1.0000   1.0000
     1.0000   1.0000   0.0057   0.0007   0.0000   0.0000   0.0000   0.0000

          k = 0.2461 0.0000-0.3442 (   706 PWs)   bands (ev):

   -17.0277 -15.5554 -13.5169 -11.3445  -2.1318  -1.3653  -1.1344   1.1553
     2.9611   3.3513   4.0114   4.3841   4.7895   4.8319   5.6139   6.6142

     occupation numbers 
     1.0000   1.0000   1.0000   1.0000   1.0000   1.0000   1.0000   1.0000
     1.0000   1.0000   0.0154   0.0000   0.0000   0.0000   0.0000   0.0000

          k = 0.2493 0.0000-0.0838 (   721 PWs)   bands (ev):

   -17.3309 -15.3932 -12.7537 -11.7720  -3.0542  -1.4473  -0.5288   0.7028
     3.0162   3.1924   4.1080   4.5103   5.0343   5.4927   5.5494   6.3829

     occupation numbers 
     1.0000   1.0000   1.0000   1.0000   1.0000   1.0000   1.0000   1.0000
     1.0000   1.0000   0.0008   0.0000   0.0000   0.0000   0.0000   0.0000

          k = 0.2525 0.3018 0.1766 (   723 PWs)   bands (ev):

   -16.8330 -15.0129 -12.5898 -11.7327  -2.3601  -1.2768  -0.0469   1.1661
     1.9362   2.0897   3.5136   3.8573   3.9887   5.0746   5.3808   6.1618

     occupation numbers 
     1.0000   1.0000   1.0000   1.0000   1.0000   1.0000   1.0000   1.0000
     1.0000   1.0000   0.9987   0.2888   0.0273   0.0000   0.0000   0.0000

          k = 0.2557 0.3018 0.4370 (   717 PWs)   bands (ev):

   -16.5247 -15.1700 -13.3077 -11.3572  -1.5461  -1.0630  -0.6441   1.7040
     1.9511   2.1269   3.3887   3.7542   3.8652   4.5964   5.1491   6.2948

     occupation numbers 
     1.0000   1.0000   1.0000   1.0000   1.0000   1.0000   1.0000   1.0000
     1.0000   1.0000   1.0000   0.6970   0.2616   0.0000   0.0000   0.0000

          k = 0.2461 0.3018-0.3442 (   714 PWs)   bands (ev):

   -16.6197 -15.2668 -13.1107 -11.1261  -1.8731  -1.1261  -0.8376   1.3897
     1.9515   2.0495   3.4980   3.7837   3.9393   4.9561   5.0467   6.6315

     occupation numbers 
     1.0000   1.0000   1.0000   1.0000   1.0000   1.0000   1.0000   1.0000
     1.0000   1.0000   0.9993   0.5825   0.0794   0.0000   0.0000   0.0000

          k = 0.2493 0.3018-0.0838 (   720 PWs)   bands (ev):

   -16.9049 -15.1249 -12.3970 -11.4991  -2.6962  -1.1906  -0.4166   0.9878
     1.9021   2.0559   3.6138   3.9144   3.9913   4.9459   5.7321   6.4587

     occupation numbers 
     1.0000   1.0000   1.0000   1.0000   1.0000   1.0000   1.0000   1.0000
     1.0000   1.0000   0.9758   0.1251   0.0256   0.0000   0.0000   0.0000

          k = 0.2525 0.6036 0.1766 (   726 PWs)   bands (ev):

   -15.7541 -14.5444 -11.6896 -11.1109  -1.6988  -1.5673  -0.1546  -0.1042
     0.7424   1.1621   1.7571   2.9703   3.1247   4.6775   5.8430   6.2964

     occupation numbers 
     1.0000   1.0000   1.0000   1.0000   1.0000   1.0000   1.0000   1.0000
     1.0000   1.0000   1.0000   1.0000   1.0000   0.0000   0.0000   0.0000

          k = 0.2557 0.6036 0.4370 (   724 PWs)   bands (ev):

   -15.5178 -14.6140 -12.2356 -10.9381  -1.5886  -0.6260  -0.4921  -0.3179
     0.7597   1.2439   1.8810   2.9091   3.1961   4.7366   5.1775   6.2637

     occupation numbers 
     1.0000   1.0000   1.0000   1.0000   1.0000   1.0000   1.0000   1.0000
     1.0000   1.0000   1.0000   1.0000   1.0000   0.0000   0.0000   0.0000

          k = 0.2461 0.6036-0.3442 (   730 PWs)   bands (ev):

   -15.5976 -14.6918 -12.0689 -10.7618  -1.8273  -0.6560  -0.5696  -0.5180
     0.8526   1.1681   1.9651   2.9694   3.0556   4.5619   5.5105   6.5370

     occupation numbers 
     1.0000   1.0000   1.0000   1.0000   1.0000   1.0000   1.0000   1.0000
     1.0000   1.0000   1.0000   1.0000   1.0000   0.0000   0.0000   0.0000

          k = 0.2493 0.6036-0.0838 (   721 PWs)   bands (ev):

   -15.8184 -14.6273 -11.5265 -10.9342  -1.9094  -1.6166  -0.4449  -0.3520
     1.0730   1.1566   1.9259   2.8591   3.1305   4.4817   6.0982   6.5413

     occupation numbers 
     1.0000   1.0000   1.0000   1.0000   1.0000   1.0000   1.0000   1.0000
     1.0000   1.0000   1.0000   1.0000   1.0000   0.0000   0.0000   0.0000

          k = 0.2525-0.9054 0.1766 (   718 PWs)   bands (ev):

   -14.7019 -14.7014 -10.9509 -10.9508  -2.1869  -2.1869  -0.5229  -0.5227
     0.6439   0.6441   1.9538   1.9541   3.9188   3.9189   6.2233   6.2236

     occupation numbers 
     1.0000   1.0000   1.0000   1.0000   1.0000   1.0000   1.0000   1.0000
     1.0000   1.0000   1.0000   1.0000   0.1160   0.1158   0.0000   0.0000

          k = 0.2557-0.9054 0.4370 (   724 PWs)   bands (ev):

   -14.6098 -14.6093 -11.1569 -11.1568  -2.0367  -2.0366  -0.5014  -0.5011
     0.8426   0.8428   1.8666   1.8668   4.0264   4.0265   5.8837   5.8841

     occupation numbers 
     1.0000   1.0000   1.0000   1.0000   1.0000   1.0000   1.0000   1.0000
     1.0000   1.0000   1.0000   1.0000   0.0103   0.0103   0.0000   0.0000

          k = 0.2461-0.9054-0.3442 (   732 PWs)   bands (ev):

   -14.6762 -14.6757 -11.0156 -11.0155  -2.1906  -2.1905  -0.3904  -0.3901
     0.6318   0.6319   2.0486   2.0488   3.8204   3.8205   6.1388   6.1392

     occupation numbers 
     1.0000   1.0000   1.0000   1.0000   1.0000   1.0000   1.0000   1.0000
     1.0000   1.0000   1.0000   1.0000   0.4314   0.4311   0.0000   0.0000

          k = 0.2493-0.9054-0.0838 (   710 PWs)   bands (ev):

   -14.7628 -14.7623 -10.8118 -10.8117  -2.2621  -2.2621  -0.7251  -0.7249
     0.7165   0.7166   2.1669   2.1671   3.6747   3.6748   6.4289   6.4293

     occupation numbers 
     1.0000   1.0000   1.0000   1.0000   1.0000   1.0000   1.0000   1.0000
     1.0000   1.0000   1.0000   1.0000   0.9101   0.9100   0.0000   0.0000

          k =-0.5049 0.0000-0.3532 (   708 PWs)   bands (ev):

   -16.2678 -16.2674 -12.7509 -12.7508  -1.1024  -1.1021   0.4538   0.4541
     3.0736   3.0736   3.7076   3.7078   5.1703   5.1704   5.2721   5.2725

     occupation numbers 
     1.0000   1.0000   1.0000   1.0000   1.0000   1.0000   1.0000   1.0000
     1.0000   1.0000   0.8413   0.8408   0.0000   0.0000   0.0000   0.0000

          k =-0.5017 0.0000-0.0928 (   710 PWs)   bands (ev):

   -16.5308 -16.1752 -12.9594 -12.0974  -2.4794  -0.4002   0.6319   0.6603
     2.6676   2.9275   3.5815   3.7691   4.5792   5.0932   5.3279   6.5972

     occupation numbers 
     1.0000   1.0000   1.0000   1.0000   1.0000   1.0000   1.0000   1.0000
     1.0000   1.0000   0.9896   0.6406   0.0000   0.0000   0.0000   0.0000

          k =-0.5113 0.0000-0.8740 (   718 PWs)   bands (ev):

   -16.4601 -16.4597 -12.3050 -12.3049  -1.9885  -1.9882   0.8430   0.8434
     2.6125   2.6126   3.6325   3.6326   5.2627   5.2628   6.0100   6.0104

     occupation numbers 
     1.0000   1.0000   1.0000   1.0000   1.0000   1.0000   1.0000   1.0000
     1.0000   1.0000   0.9625   0.9624   0.0000   0.0000   0.0000   0.0000

          k =-0.5049 0.3018-0.3532 (   714 PWs)   bands (ev):

   -15.9130 -15.9125 -12.4030 -12.4028  -0.9231  -0.9227   0.2878   0.2880
     2.5935   2.5936   2.9198   2.9199   4.5225   4.5226   5.4259   5.4263

     occupation numbers 
     1.0000   1.0000   1.0000   1.0000   1.0000   1.0000   1.0000   1.0000
     1.0000   1.0000   1.0000   1.0000   0.0000   0.0000   0.0000   0.0000

          k =-0.5017 0.3018-0.0928 (   718 PWs)   bands (ev):

   -16.1577 -15.8315 -12.5886 -11.8002  -2.1921  -0.2778   0.3820   0.4576
     2.3405   2.6338   2.8260   2.8549   4.3937   4.5432   4.9014   6.6307

     occupation numbers 
     1.0000   1.0000   1.0000   1.0000   1.0000   1.0000   1.0000   1.0000
     1.0000   1.0000   1.0000   1.0000   0.0000   0.0000   0.0000   0.0000

          k =-0.5113 0.3018-0.8740 (   718 PWs)   bands (ev):

   -16.0944 -16.0940 -11.9849 -11.9848  -1.7282  -1.7279   0.4935   0.4938
     2.5178   2.5179   2.7903   2.7903   4.4686   4.4687   6.1097   6.1101

     occupation numbers 
     1.0000   1.0000   1.0000   1.0000   1.0000   1.0000   1.0000   1.0000
     1.0000   1.0000   1.0000   1.0000   0.0000   0.0000   0.0000   0.0000

          k =-0.5049 0.6036-0.3532 (   734 PWs)   bands (ev):

   -15.0918 -15.0913 -11.5941 -11.5940  -1.3534  -1.3533  -0.6258  -0.6256
     1.3329   1.3331   2.3569   2.3570   4.3596   4.3597   5.7299   5.7303

     occupation numbers 
     1.0000   1.0000   1.0000   1.0000   1.0000   1.0000   1.0000   1.0000
     1.0000   1.0000   1.0000   1.0000   0.0000   0.0000   0.0000   0.0000

          k =-0.5017 0.6036-0.0928 (   720 PWs)   bands (ev):

   -15.2728 -15.0548 -11.6852 -11.1618  -1.9348  -1.4729  -0.6213  -0.0689
     1.0630   1.1275   2.4613   2.4710   4.2079   4.2145   5.5103   6.5769

     occupation numbers 
     1.0000   1.0000   1.0000   1.0000   1.0000   1.0000   1.0000   1.0000
     1.0000   1.0000   1.0000   1.0000   0.0000   0.0000   0.0000   0.0000

          k =-0.5113 0.6036-0.8740 (   724 PWs)   bands (ev):

   -15.2426 -15.2421 -11.2540 -11.2539  -1.5973  -1.5972  -0.9513  -0.9512
     1.3396   1.3397   2.6044   2.6046   4.0279   4.0279   6.2812   6.2816

     occupation numbers 
     1.0000   1.0000   1.0000   1.0000   1.0000   1.0000   1.0000   1.0000
     1.0000   1.0000   1.0000   1.0000   0.0099   0.0099   0.0000   0.0000

          k =-0.5049-0.9054-0.3532 (   728 PWs)   bands (ev):

   -14.6014 -14.6009 -11.1077 -11.1076  -2.4193  -2.4192  -0.8934  -0.8932
     0.8191   0.8194   2.5274   2.5276   4.4809   4.4810   5.8827   5.8831

     occupation numbers 
     1.0000   1.0000   1.0000   1.0000   1.0000   1.0000   1.0000   1.0000
     1.0000   1.0000   1.0000   1.0000   0.0000   0.0000   0.0000   0.0000

          k =-0.5017-0.9054-0.0928 (   732 PWs)   bands (ev):

   -14.6672 -14.6667 -10.9660 -10.9659  -2.6291  -2.6290  -0.3307  -0.3304
     0.1842   0.1844   2.6480   2.6483   4.3254   4.3255   6.1951   6.1955

     occupation numbers 
     1.0000   1.0000   1.0000   1.0000   1.0000   1.0000   1.0000   1.0000
     1.0000   1.0000   1.0000   1.0000   0.0000   0.0000   0.0000   0.0000

          k =-0.5113-0.9054-0.8740 (   724 PWs)   bands (ev):

   -14.7292 -14.7287 -10.8275 -10.8274  -2.6180  -2.6180  -0.8331  -0.8329
     0.5028   0.5030   2.7948   2.7951   4.1434   4.1435   6.3540   6.3544

     occupation numbers 
     1.0000   1.0000   1.0000   1.0000   1.0000   1.0000   1.0000   1.0000
     1.0000   1.0000   1.0000   1.0000   0.0002   0.0002   0.0000   0.0000

     the Fermi energy is     3.8038 ev

!    total energy              =    -127.20758913 Ry
     Harris-Foulkes estimate   =    -127.20758857 Ry
     estimated scf accuracy    <       0.00000049 Ry

     The total energy is the sum of the following terms:

     one-electron contribution =     -23.08291430 Ry
     hartree contribution      =      25.15064018 Ry
     xc contribution           =     -26.50665163 Ry
     ewald contribution        =    -102.76630911 Ry
     smearing contrib. (-TS)   =      -0.00235427 Ry

     convergence has been achieved in   9 iterations

     Forces acting on atoms (cartesian axes, Ry/au):

     atom    1 type  1   force =     0.03532779    0.00000000   -0.25050755
     atom    2 type  1   force =     0.03533195    0.00000000   -0.25053316
     atom    3 type  1   force =    -0.03533195    0.00000000    0.25053316
     atom    4 type  1   force =    -0.03532779    0.00000000    0.25050755
     The non-local contrib.  to forces
     atom    1 type  1   force =     0.18408508    0.00000000   -1.43050901
     atom    2 type  1   force =     0.18409398    0.00000000   -1.43067249
     atom    3 type  1   force =    -0.18409398    0.00000000    1.43067249
     atom    4 type  1   force =    -0.18408508    0.00000000    1.43050901
     The ionic contribution  to forces
     atom    1 type  1   force =    -0.15807139    0.00000000    4.80131942
     atom    2 type  1   force =    -0.15815598   -0.00000000    4.80180791
     atom    3 type  1   force =     0.15815598   -0.00000000   -4.80180791
     atom    4 type  1   force =     0.15807139   -0.00000000   -4.80131942
     The local contribution  to forces
     atom    1 type  1   force =     0.00933308   -0.00000000   -3.62105534
     atom    2 type  1   force =     0.00938539    0.00000000   -3.62143428
     atom    3 type  1   force =    -0.00938539   -0.00000000    3.62143428
     atom    4 type  1   force =    -0.00933308    0.00000000    3.62105534
     The core correction contribution to forces
     atom    1 type  1   force =     0.00000000    0.00000000    0.00000000
     atom    2 type  1   force =     0.00000000    0.00000000    0.00000000
     atom    3 type  1   force =     0.00000000    0.00000000    0.00000000
     atom    4 type  1   force =     0.00000000    0.00000000    0.00000000
     The Hubbard contrib.    to forces
     atom    1 type  1   force =     0.00000000    0.00000000    0.00000000
     atom    2 type  1   force =     0.00000000    0.00000000    0.00000000
     atom    3 type  1   force =     0.00000000    0.00000000    0.00000000
     atom    4 type  1   force =     0.00000000    0.00000000    0.00000000
     The SCF correction term to forces
     atom    1 type  1   force =    -0.00001899    0.00000000   -0.00026262
     atom    2 type  1   force =     0.00000855   -0.00000000   -0.00023430
     atom    3 type  1   force =    -0.00000855   -0.00000000    0.00023430
     atom    4 type  1   force =     0.00001899    0.00000000    0.00026262

     Total force =     0.505999     Total SCF correction =     0.000499


     Computing stress (Cartesian axis) and pressure

          total   stress  (Ry/bohr**3)                   (kbar)     P= -181.65
   0.00128797   0.00000000   0.00088466        189.47      0.00    130.14
   0.00000000   0.00137878   0.00000000          0.00    202.82      0.00
   0.00088466   0.00000000  -0.00637132        130.14      0.00   -937.25

     kinetic stress (kbar)  22358.19      0.00    483.60
                                0.00  22136.73      0.00
                              483.60      0.00  18983.74

     local   stress (kbar) -13269.06     -0.00    774.92
                               -0.00 -14543.64      0.00
                              774.92      0.00 -11492.31

     nonloc. stress (kbar)  13140.87      0.00    189.94
                                0.00  13043.05      0.00
                              189.94      0.00  11857.87

     hartree stress (kbar)   5336.45      0.00   -334.89
                                0.00   5830.73     -0.00
                             -334.89     -0.00   4205.79

     exc-cor stress (kbar)  -5112.67      0.00     -3.40
                                0.00  -5108.96     -0.00
                               -3.40     -0.00  -5097.28

     corecor stress (kbar)      0.00      0.00      0.00
                                0.00      0.00      0.00
                                0.00      0.00      0.00

     ewald   stress (kbar) -22264.31      0.00   -980.03
                                0.00 -21155.09     -0.00
                             -980.03     -0.00 -19395.06

     hubbard stress (kbar)      0.00      0.00      0.00
                                0.00      0.00      0.00
                                0.00      0.00      0.00

     london  stress (kbar)      0.00      0.00      0.00
                                0.00      0.00      0.00
                                0.00      0.00      0.00

     DFT-D3  stress (kbar)      0.00      0.00      0.00
                                0.00      0.00      0.00
                                0.00      0.00      0.00

     XDM     stress (kbar)      0.00      0.00      0.00
                                0.00      0.00      0.00
                                0.00      0.00      0.00

     dft-nl  stress (kbar)      0.00      0.00      0.00
                                0.00      0.00      0.00
                                0.00      0.00      0.00

     TS-vdW  stress (kbar)      0.00      0.00      0.00
                                0.00      0.00      0.00
                                0.00      0.00      0.00



     number of scf cycles    =   2
     number of bfgs steps    =   1

     enthalpy old            =    -126.8166203153 Ry
     enthalpy new            =    -126.7167803513 Ry

     CASE: enthalpy_new > enthalpy_old

     new trust radius        =       0.2225011567 bohr
     new conv_thr            =       0.0000010000 Ry

     new unit-cell volume =    222.81347 a.u.^3 (    33.01755 Ang^3 )
     density =      3.21861 g/cm^3

CELL_PARAMETERS (alat=  7.68844337)
   0.999440784   0.000000000  -0.005941580
   0.000000000   0.553207777   0.000000000
  -0.672562060   0.000000000   0.890706742

ATOMIC_POSITIONS (crystal)
O        0.107237108   0.000000000   0.182745422
O        0.607235190   0.500000000   0.182741820
O        0.392764810   0.500000000   0.817258180
O        0.892762892   0.000000000   0.817254578



     Writing output data file O2alpha.save/
     NEW-OLD atomic charge density approx. for the potential
     extrapolated charge   22.07681, renormalised to   24.00000

     total cpu time spent up to now is        9.2 secs

     Self-consistent Calculation

     iteration #  1     ecut=    35.00 Ry     beta= 0.40
     Davidson diagonalization with overlap
     ethr =  1.00E-06,  avg # of iterations =  5.0

     total cpu time spent up to now is       10.0 secs

     total energy              =    -127.35578149 Ry
     Harris-Foulkes estimate   =    -129.61420594 Ry
     estimated scf accuracy    <       0.31422891 Ry

     iteration #  2     ecut=    35.00 Ry     beta= 0.40
     Davidson diagonalization with overlap
     ethr =  1.31E-03,  avg # of iterations =  3.0

     total cpu time spent up to now is       10.5 secs

     total energy              =    -127.58437935 Ry
     Harris-Foulkes estimate   =    -127.62656566 Ry
     estimated scf accuracy    <       0.11547619 Ry

     iteration #  3     ecut=    35.00 Ry     beta= 0.40
     Davidson diagonalization with overlap
     ethr =  4.81E-04,  avg # of iterations =  1.0

     total cpu time spent up to now is       10.8 secs

     total energy              =    -127.57276538 Ry
     Harris-Foulkes estimate   =    -127.59035742 Ry
     estimated scf accuracy    <       0.02881696 Ry

     iteration #  4     ecut=    35.00 Ry     beta= 0.40
     Davidson diagonalization with overlap
     ethr =  1.20E-04,  avg # of iterations =  2.0

     total cpu time spent up to now is       11.2 secs

     total energy              =    -127.58071366 Ry
     Harris-Foulkes estimate   =    -127.58115341 Ry
     estimated scf accuracy    <       0.00093678 Ry

     iteration #  5     ecut=    35.00 Ry     beta= 0.40
     Davidson diagonalization with overlap
     ethr =  3.90E-06,  avg # of iterations =  2.0

     total cpu time spent up to now is       11.6 secs

     total energy              =    -127.58116078 Ry
     Harris-Foulkes estimate   =    -127.58110223 Ry
     estimated scf accuracy    <       0.00053840 Ry

     iteration #  6     ecut=    35.00 Ry     beta= 0.40
     Davidson diagonalization with overlap
     ethr =  2.24E-06,  avg # of iterations =  1.0

     total cpu time spent up to now is       11.9 secs

     total energy              =    -127.58099330 Ry
     Harris-Foulkes estimate   =    -127.58123257 Ry
     estimated scf accuracy    <       0.00044952 Ry

     iteration #  7     ecut=    35.00 Ry     beta= 0.40
     Davidson diagonalization with overlap
     ethr =  1.87E-06,  avg # of iterations =  2.0

     total cpu time spent up to now is       12.3 secs

     total energy              =    -127.58109229 Ry
     Harris-Foulkes estimate   =    -127.58109107 Ry
     estimated scf accuracy    <       0.00000744 Ry

     iteration #  8     ecut=    35.00 Ry     beta= 0.40
     Davidson diagonalization with overlap
     ethr =  3.10E-08,  avg # of iterations =  2.0

     total cpu time spent up to now is       12.7 secs

     End of self-consistent calculation

          k = 0.0000 0.0000 0.0000 (   713 PWs)   bands (ev):

   -20.4563 -18.3734 -10.1492  -8.9069  -3.6564  -3.2338  -0.2238   1.9768
     2.0795   2.9259   3.2304   6.9420   7.2244   7.5416  11.8346  13.4032

     occupation numbers 
     1.0000   1.0000   1.0000   1.0000   1.0000   1.0000   1.0000   1.0000
     1.0000   1.0000   1.0000   0.0000   0.0000   0.0000   0.0000   0.0000

          k = 0.0017 0.0000 0.2819 (   707 PWs)   bands (ev):

   -20.3644 -18.4030 -10.8910  -8.6214  -3.4822  -2.3100  -0.8156   2.0556
     2.5064   2.8956   3.1903   6.7926   7.2671   7.6134  11.6155  12.7007

     occupation numbers 
     1.0000   1.0000   1.0000   1.0000   1.0000   1.0000   1.0000   1.0000
     1.0000   1.0000   1.0000   0.0000   0.0000   0.0000   0.0000   0.0000

          k =-0.0034 0.0000-0.5639 (   710 PWs)   bands (ev):

   -20.2680 -18.4322 -11.4952  -8.3056  -3.6417  -1.5440  -0.9335   2.1389
     2.8607   3.0464   3.1509   6.6394   7.3161   7.6843   9.9029  13.4688

     occupation numbers 
     1.0000   1.0000   1.0000   1.0000   1.0000   1.0000   1.0000   1.0000
     1.0000   1.0000   1.0000   0.0000   0.0000   0.0000   0.0000   0.0000

          k = 0.0000 0.3013 0.0000 (   720 PWs)   bands (ev):

   -20.0846 -18.2036  -9.7861  -8.6450  -3.3756  -2.7640  -0.2059   0.5205
     1.9176   2.5213   2.6764   5.8985   6.5142   7.0536  12.0838  13.4677

     occupation numbers 
     1.0000   1.0000   1.0000   1.0000   1.0000   1.0000   1.0000   1.0000
     1.0000   1.0000   1.0000   0.0076   0.0000   0.0000   0.0000   0.0000

          k = 0.0017 0.3013 0.2819 (   725 PWs)   bands (ev):

   -19.9998 -18.2278 -10.4812  -8.4035  -3.0012  -2.1273  -0.7249   0.6508
     1.8575   2.6432   2.9139   5.7277   6.5956   7.1094  11.8243  12.7971

     occupation numbers 
     1.0000   1.0000   1.0000   1.0000   1.0000   1.0000   1.0000   1.0000
     1.0000   1.0000   1.0000   0.2564   0.0000   0.0000   0.0000   0.0000

          k =-0.0034 0.3013-0.5639 (   718 PWs)   bands (ev):

   -19.9105 -18.2516 -11.0516  -8.1404  -3.1463  -1.3699  -0.8631   0.7925
     1.8086   2.6009   3.4102   5.5157   6.6390   7.1675  10.3129  13.4595

     occupation numbers 
     1.0000   1.0000   1.0000   1.0000   1.0000   1.0000   1.0000   1.0000
     1.0000   1.0000   1.0000   0.9394   0.0000   0.0000   0.0000   0.0000

          k = 0.0000 0.6025 0.0000 (   730 PWs)   bands (ev):

   -19.1498 -17.9517  -8.8843  -8.1217  -2.8805  -1.9030  -1.4787  -0.2638
    -0.2020   1.7822   3.6826   4.0019   4.4978   6.4002  12.6754  13.4977

     occupation numbers 
     1.0000   1.0000   1.0000   1.0000   1.0000   1.0000   1.0000   1.0000
     1.0000   1.0000   1.0000   1.0000   1.0000   0.0000   0.0000   0.0000

          k = 0.0017 0.6025 0.2819 (   722 PWs)   bands (ev):

   -19.0859 -17.9566  -9.4223  -8.0456  -2.0191  -1.8155  -1.6577  -0.4484
    -0.2169   1.7412   3.7942   4.0568   4.5709   6.5027  12.3228  12.9287

     occupation numbers 
     1.0000   1.0000   1.0000   1.0000   1.0000   1.0000   1.0000   1.0000
     1.0000   1.0000   1.0000   1.0000   1.0000   0.0000   0.0000   0.0000

          k =-0.0034 0.6025-0.5639 (   720 PWs)   bands (ev):

   -19.0194 -17.9616  -9.8769  -7.9660  -1.8208  -1.7837  -1.3459  -0.5424
     0.0015   1.6733   3.5937   4.3612   4.5454   6.6122  11.3311  13.2373

     occupation numbers 
     1.0000   1.0000   1.0000   1.0000   1.0000   1.0000   1.0000   1.0000
     1.0000   1.0000   1.0000   1.0000   1.0000   0.0000   0.0000   0.0000

          k = 0.0000-0.9038 0.0000 (   716 PWs)   bands (ev):

   -18.2231 -18.2226  -8.0879  -8.0878  -2.9364  -2.9363  -0.5938  -0.5937
     0.2308   0.2311   3.2940   3.2941   5.1669   5.1669  13.2450  13.2456

     occupation numbers 
     1.0000   1.0000   1.0000   1.0000   1.0000   1.0000   1.0000   1.0000
     1.0000   1.0000   1.0000   1.0000   1.0000   1.0000   0.0000   0.0000

          k = 0.0017-0.9038 0.2819 (   726 PWs)   bands (ev):

   -18.1940 -18.1935  -8.3303  -8.3303  -2.6415  -2.6413  -0.6101  -0.6099
     0.2050   0.2053   3.2827   3.2828   5.3652   5.3652  12.7885  12.7891

     occupation numbers 
     1.0000   1.0000   1.0000   1.0000   1.0000   1.0000   1.0000   1.0000
     1.0000   1.0000   1.0000   1.0000   0.9991   0.9991   0.0000   0.0000

          k =-0.0034-0.9038-0.5639 (   732 PWs)   bands (ev):

   -18.1639 -18.1634  -8.5492  -8.5491  -2.4944  -2.4942  -0.2599  -0.2597
     0.0413   0.0416   3.1094   3.1094   5.5811   5.5811  12.4903  12.4909

     occupation numbers 
     1.0000   1.0000   1.0000   1.0000   1.0000   1.0000   1.0000   1.0000
     1.0000   1.0000   1.0000   1.0000   0.8078   0.8077   0.0000   0.0000

          k = 0.2513 0.0000 0.1897 (   707 PWs)   bands (ev):

   -20.1667 -18.6985 -10.2726  -9.3975  -2.8752  -2.6208  -0.2819   1.9064
     2.1684   3.0563   3.1579   6.6738   6.9859   7.4078  11.6620  12.6979

     occupation numbers 
     1.0000   1.0000   1.0000   1.0000   1.0000   1.0000   1.0000   1.0000
     1.0000   1.0000   1.0000   0.0000   0.0000   0.0000   0.0000   0.0000

          k = 0.2529 0.0000 0.4717 (   704 PWs)   bands (ev):

   -20.0435 -18.7576 -11.1229  -8.9067  -2.9539  -1.2065  -1.1098   1.8735
     2.2762   2.9903   3.6791   6.6893   6.7876   7.5261  10.4354  12.9533

     occupation numbers 
     1.0000   1.0000   1.0000   1.0000   1.0000   1.0000   1.0000   1.0000
     1.0000   1.0000   1.0000   0.0000   0.0000   0.0000   0.0000   0.0000

          k = 0.2479 0.0000-0.3742 (   706 PWs)   bands (ev):

   -20.0765 -18.7948 -10.9342  -8.6180  -3.1654  -1.4902  -1.2421   1.9343
     2.2532   2.9667   3.3187   6.5115   6.8284   7.5664  10.8548  13.4131

     occupation numbers 
     1.0000   1.0000   1.0000   1.0000   1.0000   1.0000   1.0000   1.0000
     1.0000   1.0000   1.0000   0.0000   0.0000   0.0000   0.0000   0.0000

          k = 0.2496 0.0000-0.0922 (   721 PWs)   bands (ev):

   -20.1975 -18.7373 -10.0267  -9.1585  -3.2635  -2.6360  -0.5310   1.9767
     2.1468   2.8797   3.0317   6.5005   7.0251   7.4492  12.0066  13.1122

     occupation numbers 
     1.0000   1.0000   1.0000   1.0000   1.0000   1.0000   1.0000   1.0000
     1.0000   1.0000   1.0000   0.0000   0.0000   0.0000   0.0000   0.0000

          k = 0.2513 0.3013 0.1897 (   723 PWs)   bands (ev):

   -19.8166 -18.4884  -9.9044  -9.0974  -2.6803  -2.3311  -0.2300   0.8663
     1.1967   2.4550   3.3900   5.9265   6.0520   7.0371  11.9058  12.8115

     occupation numbers 
     1.0000   1.0000   1.0000   1.0000   1.0000   1.0000   1.0000   1.0000
     1.0000   1.0000   1.0000   0.0033   0.0000   0.0000   0.0000   0.0000

          k = 0.2529 0.3013 0.4717 (   717 PWs)   bands (ev):

   -19.7034 -18.5388 -10.7006  -8.6670  -2.6728  -1.0729  -1.0072   1.0250
     1.1206   2.4126   3.8442   5.8304   6.0156   7.1034  10.7782  13.0124

     occupation numbers 
     1.0000   1.0000   1.0000   1.0000   1.0000   1.0000   1.0000   1.0000
     1.0000   1.0000   1.0000   0.0425   0.0001   0.0000   0.0000   0.0000

          k = 0.2479 0.3013-0.3742 (   714 PWs)   bands (ev):

   -19.7344 -18.5726 -10.5207  -8.4042  -2.9058  -1.3940  -0.9917   0.9995
     1.0481   2.4788   3.5582   5.8407   6.0257   7.0005  11.1495  13.4168

     occupation numbers 
     1.0000   1.0000   1.0000   1.0000   1.0000   1.0000   1.0000   1.0000
     1.0000   1.0000   1.0000   0.0337   0.0001   0.0000   0.0000   0.0000

          k = 0.2496 0.3013-0.0922 (   720 PWs)   bands (ev):

   -19.8454 -18.5237  -9.6728  -8.8757  -3.0261  -2.3808  -0.4285   0.8555
     1.1419   2.5200   3.1778   5.9566   6.0664   6.9213  12.2031  13.1808

     occupation numbers 
     1.0000   1.0000   1.0000   1.0000   1.0000   1.0000   1.0000   1.0000
     1.0000   1.0000   1.0000   0.0012   0.0000   0.0000   0.0000   0.0000

          k = 0.2513 0.6025 0.1897 (   726 PWs)   bands (ev):

   -18.9578 -18.1081  -9.0011  -8.4547  -2.6189  -2.5321  -0.4672  -0.3483
    -0.0939   1.9038   3.1915   3.9223   5.2027   6.6552  12.4667  12.9979

     occupation numbers 
     1.0000   1.0000   1.0000   1.0000   1.0000   1.0000   1.0000   1.0000
     1.0000   1.0000   1.0000   1.0000   1.0000   0.0000   0.0000   0.0000

          k = 0.2529 0.6025 0.4717 (   724 PWs)   bands (ev):

   -18.8762 -18.1290  -9.6089  -8.2505  -2.6598  -1.8545  -0.5722  -0.2104
    -0.2003   1.8613   3.2117   4.0413   5.3108   6.7302  11.6323  12.9965

     occupation numbers 
     1.0000   1.0000   1.0000   1.0000   1.0000   1.0000   1.0000   1.0000
     1.0000   1.0000   1.0000   1.0000   0.9999   0.0000   0.0000   0.0000

          k = 0.2479 0.6025-0.3742 (   730 PWs)   bands (ev):

   -18.9020 -18.1553  -9.4530  -8.0572  -2.8237  -1.9271  -0.7430  -0.4901
    -0.0480   1.9610   3.2725   4.1760   5.0659   6.5556  11.8955  13.2714

     occupation numbers 
     1.0000   1.0000   1.0000   1.0000   1.0000   1.0000   1.0000   1.0000
     1.0000   1.0000   1.0000   1.0000   1.0000   0.0000   0.0000   0.0000

          k = 0.2496 0.6025-0.0922 (   721 PWs)   bands (ev):

   -18.9821 -18.1348  -8.8108  -8.2792  -2.7745  -2.5909  -0.7055  -0.7050
     0.1130   2.0049   3.3258   4.0883   4.9642   6.4783  12.6620  13.2473

     occupation numbers 
     1.0000   1.0000   1.0000   1.0000   1.0000   1.0000   1.0000   1.0000
     1.0000   1.0000   1.0000   1.0000   1.0000   0.0000   0.0000   0.0000

          k = 0.2513-0.9038 0.1897 (   718 PWs)   bands (ev):

   -18.1864 -18.1858  -8.2674  -8.2673  -3.2130  -3.2129  -0.5544  -0.5542
     0.9150   0.9152   2.7090   2.7091   5.9431   5.9431  12.9305  12.9311

     occupation numbers 
     1.0000   1.0000   1.0000   1.0000   1.0000   1.0000   1.0000   1.0000
     1.0000   1.0000   1.0000   1.0000   0.0019   0.0019   0.0000   0.0000

          k = 0.2529-0.9038 0.4717 (   724 PWs)   bands (ev):

   -18.1566 -18.1560  -8.4938  -8.4938  -3.0424  -3.0423  -0.4048  -0.4046
     0.8447   0.8449   2.7375   2.7376   6.0839   6.0839  12.5363  12.5369

     occupation numbers 
     1.0000   1.0000   1.0000   1.0000   1.0000   1.0000   1.0000   1.0000
     1.0000   1.0000   1.0000   1.0000   0.0000   0.0000   0.0000   0.0000

          k = 0.2479-0.9038-0.3742 (   732 PWs)   bands (ev):

   -18.1786 -18.1781  -8.3523  -8.3522  -3.1115  -3.1114  -0.6386  -0.6384
     0.9924   0.9926   2.8538   2.8539   5.8751   5.8751  12.7363  12.7369

     occupation numbers 
     1.0000   1.0000   1.0000   1.0000   1.0000   1.0000   1.0000   1.0000
     1.0000   1.0000   1.0000   1.0000   0.0144   0.0144   0.0000   0.0000

          k = 0.2496-0.9038-0.0922 (   710 PWs)   bands (ev):

   -18.2079 -18.2073  -8.1170  -8.1170  -3.2496  -3.2495  -0.8791  -0.8789
     1.0659   1.0661   2.9078   2.9079   5.7237   5.7237  13.0860  13.0867

     occupation numbers 
     1.0000   1.0000   1.0000   1.0000   1.0000   1.0000   1.0000   1.0000
     1.0000   1.0000   1.0000   1.0000   0.2701   0.2700   0.0000   0.0000

          k =-0.5025 0.0000-0.3795 (   708 PWs)   bands (ev):

   -19.4496 -19.4491 -10.1216 -10.1215  -1.6952  -1.6951  -0.0715  -0.0713
     2.6212   2.6215   5.1887   5.1887   7.1512   7.1513  11.6961  11.6967

     occupation numbers 
     1.0000   1.0000   1.0000   1.0000   1.0000   1.0000   1.0000   1.0000
     1.0000   1.0000   1.0000   1.0000   0.0000   0.0000   0.0000   0.0000

          k =-0.5009 0.0000-0.0975 (   710 PWs)   bands (ev):

   -19.5484 -19.4172 -10.3595  -9.3492  -2.9976  -1.1555  -0.0831   0.1321
     2.5376   2.6610   4.8240   5.0587   7.0794   7.3027  10.8715  13.4502

     occupation numbers 
     1.0000   1.0000   1.0000   1.0000   1.0000   1.0000   1.0000   1.0000
     1.0000   1.0000   1.0000   1.0000   0.0000   0.0000   0.0000   0.0000

          k =-0.5059 0.0000-0.9433 (   718 PWs)   bands (ev):

   -19.5184 -19.5179  -9.6557  -9.6556  -2.4119  -2.4117   0.0637   0.0640
     2.5750   2.5753   4.7231   4.7231   7.2329   7.2330  12.5001  12.5007

     occupation numbers 
     1.0000   1.0000   1.0000   1.0000   1.0000   1.0000   1.0000   1.0000
     1.0000   1.0000   1.0000   1.0000   0.0000   0.0000   0.0000   0.0000

[...]
     1.0000   1.0000   1.0000   1.0000   0.6841   0.6839   0.0000   0.0000

          k = 0.2516 0.0000 0.2049 (   704 PWs)   bands (ev):

   -21.3321 -20.0298  -8.5063  -7.8082  -2.6559  -2.3517   0.5025   1.8708
     1.9912   2.8994   4.8723   8.3958   8.6642   9.0275  16.1004  17.0403

     occupation numbers 
     1.0000   1.0000   1.0000   1.0000   1.0000   1.0000   1.0000   1.0000
     1.0000   1.0000   1.0000   0.0000   0.0000   0.0000   0.0000   0.0000

          k = 0.2521 0.0000 0.5094 (   697 PWs)   bands (ev):

   -21.2025 -20.0841  -9.7406  -7.2344  -2.8365  -0.4320  -0.2155   1.8391
     2.1414   2.8187   5.2831   8.3425   8.5027   9.1938  14.5299  16.9052

     occupation numbers 
     1.0000   1.0000   1.0000   1.0000   1.0000   1.0000   1.0000   1.0000
     1.0000   1.0000   1.0000   0.0000   0.0000   0.0000   0.0000   0.0000

          k = 0.2505 0.0000-0.4043 (   704 PWs)   bands (ev):

   -21.2393 -20.1246  -9.4472  -6.6484  -3.3049  -0.7893  -0.5371   1.9276
     2.1047   2.7813   4.8326   8.3225   8.4182   9.2733  15.1873  17.9885

     occupation numbers 
     1.0000   1.0000   1.0000   1.0000   1.0000   1.0000   1.0000   1.0000
     1.0000   1.0000   1.0000   0.0000   0.0000   0.0000   0.0000   0.0000

          k = 0.2511 0.0000-0.0997 (   714 PWs)   bands (ev):

   -21.3665 -20.0715  -8.0324  -7.3817  -3.0466  -2.7809   0.0804   1.9569
     1.9798   2.8601   4.6145   8.1857   8.7381   9.1078  16.7484  17.8712

     occupation numbers 
     1.0000   1.0000   1.0000   1.0000   1.0000   1.0000   1.0000   1.0000
     1.0000   1.0000   1.0000   0.0000   0.0000   0.0000   0.0000   0.0000

          k = 0.2516 0.3013 0.2049 (   722 PWs)   bands (ev):

   -21.0192 -19.8494  -8.1404  -7.4916  -2.3680  -2.2515   0.3980   0.9030
     1.2982   2.3117   5.0387   7.4949   7.7789   8.7973  16.3512  17.1678

     occupation numbers 
     1.0000   1.0000   1.0000   1.0000   1.0000   1.0000   1.0000   1.0000
     1.0000   1.0000   1.0000   0.0172   0.0000   0.0000   0.0000   0.0000

          k = 0.2521 0.3013 0.5094 (   714 PWs)   bands (ev):

   -20.9010 -19.8947  -9.3022  -6.9975  -2.5602  -0.4227  -0.3354   1.0610
     1.3531   2.2527   5.3930   7.4227   7.6714   8.9214  14.8776  17.0300

     occupation numbers 
     1.0000   1.0000   1.0000   1.0000   1.0000   1.0000   1.0000   1.0000
     1.0000   1.0000   1.0000   0.0863   0.0000   0.0000   0.0000   0.0000

          k = 0.2505 0.3013-0.4043 (   710 PWs)   bands (ev):

   -20.9352 -19.9319  -9.0158  -6.4549  -3.0507  -0.8719  -0.3237   0.9486
     1.1897   2.3437   5.1017   7.4242   7.8291   8.7253  15.4861  18.0108

     occupation numbers 
     1.0000   1.0000   1.0000   1.0000   1.0000   1.0000   1.0000   1.0000
     1.0000   1.0000   1.0000   0.0838   0.0000   0.0000   0.0000   0.0000

          k = 0.2511 0.3013-0.0997 (   719 PWs)   bands (ev):

   -21.0516 -19.8875  -7.6846  -7.0842  -2.8801  -2.5325   0.1601   0.7310
     1.2023   2.4054   4.9142   7.6439   7.7937   8.5940  16.9343  17.9408

     occupation numbers 
     1.0000   1.0000   1.0000   1.0000   1.0000   1.0000   1.0000   1.0000
     1.0000   1.0000   1.0000   0.0001   0.0000   0.0000   0.0000   0.0000

          k = 0.2516 0.6026 0.2049 (   722 PWs)   bands (ev):

   -20.2638 -19.5289  -7.2492  -6.7982  -2.5496  -2.5427  -0.2983   0.1144
     0.5424   1.7589   4.7049   5.4336   7.0313   8.4465  16.9311  17.3905

     occupation numbers 
     1.0000   1.0000   1.0000   1.0000   1.0000   1.0000   1.0000   1.0000
     1.0000   1.0000   1.0000   1.0000   0.9966   0.0000   0.0000   0.0000

          k = 0.2521 0.6026 0.5094 (   722 PWs)   bands (ev):

   -20.1795 -19.5454  -8.1565  -6.6095  -2.5847  -1.8488  -0.3049   0.3355
     0.7372   1.7076   4.6431   5.6234   7.0424   8.5611  15.7674  17.1421

     occupation numbers 
     1.0000   1.0000   1.0000   1.0000   1.0000   1.0000   1.0000   1.0000
     1.0000   1.0000   1.0000   1.0000   0.9952   0.0000   0.0000   0.0000

          k = 0.2505 0.6026-0.4043 (   726 PWs)   bands (ev):

   -20.2084 -19.5750  -7.8833  -6.1879  -2.9511  -2.0112  -0.3405   0.2111
     0.2526   1.8522   4.9632   5.9841   6.6055   8.2556  16.2697  17.8526

     occupation numbers 
     1.0000   1.0000   1.0000   1.0000   1.0000   1.0000   1.0000   1.0000
     1.0000   1.0000   1.0000   1.0000   1.0000   0.0000   0.0000   0.0000

          k = 0.2511 0.6026-0.0997 (   718 PWs)   bands (ev):

   -20.2912 -19.5588  -6.8442  -6.4381  -2.8829  -2.7007  -0.5158  -0.3215
     0.3542   1.9050   5.1859   5.8291   6.5896   8.1355  17.3696  17.9812

     occupation numbers 
     1.0000   1.0000   1.0000   1.0000   1.0000   1.0000   1.0000   1.0000
     1.0000   1.0000   1.0000   1.0000   1.0000   0.0000   0.0000   0.0000

          k = 0.2516-0.9039 0.2049 (   720 PWs)   bands (ev):

   -19.6010 -19.5998  -6.5499  -6.5498  -3.2000  -3.1997   0.1993   0.1996
     0.7842   0.7847   4.2076   4.2077   7.7410   7.7410  17.3781  17.3794

     occupation numbers 
     1.0000   1.0000   1.0000   1.0000   1.0000   1.0000   1.0000   1.0000
     1.0000   1.0000   1.0000   1.0000   0.0000   0.0000   0.0000   0.0000

          k = 0.2521-0.9039 0.5094 (   724 PWs)   bands (ev):

   -19.5687 -19.5674  -6.9433  -6.9431  -2.9890  -2.9886   0.4923   0.4927
     0.7675   0.7680   4.2372   4.2373   7.8623   7.8623  16.7209  16.7222

     occupation numbers 
     1.0000   1.0000   1.0000   1.0000   1.0000   1.0000   1.0000   1.0000
     1.0000   1.0000   1.0000   1.0000   0.0000   0.0000   0.0000   0.0000

          k = 0.2505-0.9039-0.4043 (   726 PWs)   bands (ev):

   -19.5942 -19.5929  -6.6443  -6.6442  -3.1696  -3.1692  -0.0308  -0.0305
     0.9998   1.0003   4.6382   4.6383   7.4898   7.4899  17.2123  17.2135

     occupation numbers 
     1.0000   1.0000   1.0000   1.0000   1.0000   1.0000   1.0000   1.0000
     1.0000   1.0000   1.0000   1.0000   0.0196   0.0196   0.0000   0.0000

          k = 0.2511-0.9039-0.0997 (   710 PWs)   bands (ev):

   -19.6261 -19.6248  -6.2017  -6.2017  -3.3410  -3.3407  -0.4831  -0.4829
     1.0265   1.0270   4.7375   4.7376   7.3472   7.3472  17.7857  17.7869

     occupation numbers 
     1.0000   1.0000   1.0000   1.0000   1.0000   1.0000   1.0000   1.0000
     1.0000   1.0000   1.0000   1.0000   0.2812   0.2811   0.0000   0.0000

          k =-0.5032 0.0000-0.4097 (   712 PWs)   bands (ev):

   -20.6810 -20.6798  -8.6233  -8.6232  -1.2442  -1.2441   0.3677   0.3677
     2.4676   2.4683   6.9008   6.9008   8.7615   8.7616  15.7372  15.7384

     occupation numbers 
     1.0000   1.0000   1.0000   1.0000   1.0000   1.0000   1.0000   1.0000
     1.0000   1.0000   1.0000   1.0000   0.0000   0.0000   0.0000   0.0000

          k =-0.5027 0.0000-0.1052 (   707 PWs)   bands (ev):

   -20.7839 -20.6510  -8.8798  -7.4096  -2.8015  -1.0189   0.1783   0.7468
     2.3509   2.5156   6.6107   6.6661   8.6647   9.0120  15.2272  17.8841

     occupation numbers 
     1.0000   1.0000   1.0000   1.0000   1.0000   1.0000   1.0000   1.0000
     1.0000   1.0000   1.0000   1.0000   0.0000   0.0000   0.0000   0.0000

          k =-0.5043 0.0000-1.0188 (   714 PWs)   bands (ev):

   -20.7566 -20.7555  -7.8071  -7.8070  -2.3384  -2.3382   0.4321   0.4326
     2.3952   2.3959   6.3625   6.3626   8.9171   8.9172  17.2704  17.2716

     occupation numbers 
     1.0000   1.0000   1.0000   1.0000   1.0000   1.0000   1.0000   1.0000
     1.0000   1.0000   1.0000   1.0000   0.0000   0.0000   0.0000   0.0000

          k =-0.5032 0.3013-0.4097 (   712 PWs)   bands (ev):

   -20.4276 -20.4264  -8.2600  -8.2599  -1.4088  -1.4088   0.4831   0.4831
     1.5968   1.5973   6.4616   6.4617   8.2745   8.2746  15.9605  15.9616

     occupation numbers 
     1.0000   1.0000   1.0000   1.0000   1.0000   1.0000   1.0000   1.0000
     1.0000   1.0000   1.0000   1.0000   0.0000   0.0000   0.0000   0.0000

          k =-0.5027 0.3013-0.1052 (   718 PWs)   bands (ev):

   -20.5209 -20.4026  -8.4806  -7.1345  -2.7284  -1.2328   0.2043   0.7506
     1.5148   1.6579   6.3507   6.4287   8.0584   8.3438  15.5649  17.9403

     occupation numbers 
     1.0000   1.0000   1.0000   1.0000   1.0000   1.0000   1.0000   1.0000
     1.0000   1.0000   1.0000   1.0000   0.0000   0.0000   0.0000   0.0000

          k =-0.5043 0.3013-1.0188 (   720 PWs)   bands (ev):

   -20.4981 -20.4969  -7.4750  -7.4749  -2.3134  -2.3132   0.2717   0.2718
     1.6097   1.6100   6.3310   6.3310   8.1642   8.1643  17.3572  17.3584

     occupation numbers 
     1.0000   1.0000   1.0000   1.0000   1.0000   1.0000   1.0000   1.0000
     1.0000   1.0000   1.0000   1.0000   0.0000   0.0000   0.0000   0.0000

          k =-0.5032 0.6026-0.4097 (   730 PWs)   bands (ev):

   -19.8719 -19.8707  -7.4074  -7.4073  -2.5151  -2.5148   0.4733   0.4737
     1.1685   1.1688   4.7977   4.7978   8.2205   8.2205  16.4467  16.4479

     occupation numbers 
     1.0000   1.0000   1.0000   1.0000   1.0000   1.0000   1.0000   1.0000
     1.0000   1.0000   1.0000   1.0000   0.0000   0.0000   0.0000   0.0000

          k =-0.5027 0.6026-0.1052 (   717 PWs)   bands (ev):

   -19.9364 -19.8639  -7.4761  -6.5794  -3.1027  -2.5756  -0.1310   0.4709
     1.2947   1.3086   4.8024   5.1119   7.9352   7.9851  16.4295  17.8950

     occupation numbers 
     1.0000   1.0000   1.0000   1.0000   1.0000   1.0000   1.0000   1.0000
     1.0000   1.0000   1.0000   1.0000   0.0000   0.0000   0.0000   0.0000

          k =-0.5043 0.6026-1.0188 (   728 PWs)   bands (ev):

   -19.9302 -19.9289  -6.7055  -6.7054  -2.8978  -2.8975  -0.4893  -0.4890
     1.4449   1.4453   5.3595   5.3596   7.6820   7.6820  17.5085  17.5097

     occupation numbers 
     1.0000   1.0000   1.0000   1.0000   1.0000   1.0000   1.0000   1.0000
     1.0000   1.0000   1.0000   1.0000   0.0000   0.0000   0.0000   0.0000

          k =-0.5032-0.9039-0.4097 (   720 PWs)   bands (ev):

   -19.5638 -19.5625  -6.8885  -6.8884  -3.3250  -3.3247   0.4078   0.4082
     1.3264   1.3268   3.8753   3.8754   8.3396   8.3396  16.7172  16.7185

     occupation numbers 
     1.0000   1.0000   1.0000   1.0000   1.0000   1.0000   1.0000   1.0000
     1.0000   1.0000   1.0000   1.0000   0.0000   0.0000   0.0000   0.0000

          k =-0.5027-0.9039-0.1052 (   730 PWs)   bands (ev):

   -19.5894 -19.5881  -6.5632  -6.5631  -3.5801  -3.5798   0.1516   0.1519
     1.4472   1.4477   4.0229   4.0230   8.0662   8.0663  17.3771  17.3783

     occupation numbers 
     1.0000   1.0000   1.0000   1.0000   1.0000   1.0000   1.0000   1.0000
     1.0000   1.0000   1.0000   1.0000   0.0000   0.0000   0.0000   0.0000

          k =-0.5043-0.9039-1.0188 (   720 PWs)   bands (ev):

   -19.6143 -19.6130  -6.2476  -6.2475  -3.5876  -3.5873  -0.5957  -0.5954
     1.5761   1.5765   4.5601   4.5603   7.7898   7.7898  17.5697  17.5708

     occupation numbers 
     1.0000   1.0000   1.0000   1.0000   1.0000   1.0000   1.0000   1.0000
     1.0000   1.0000   1.0000   1.0000   0.0000   0.0000   0.0000   0.0000

     the Fermi energy is     7.2915 ev

!    total energy              =    -127.61455364 Ry
     Harris-Foulkes estimate   =    -127.61455357 Ry
     estimated scf accuracy    <          3.7E-09 Ry

     The total energy is the sum of the following terms:

     one-electron contribution =     -29.72820842 Ry
     hartree contribution      =      29.39038940 Ry
     xc contribution           =     -27.47231637 Ry
     ewald contribution        =     -99.80368974 Ry
     smearing contrib. (-TS)   =      -0.00072850 Ry

     convergence has been achieved in  10 iterations

     Forces acting on atoms (cartesian axes, Ry/au):

     atom    1 type  1   force =     0.00004123    0.00000000   -0.00019825
     atom    2 type  1   force =     0.00004715   -0.00000000   -0.00010617
     atom    3 type  1   force =    -0.00004715   -0.00000000    0.00010617
     atom    4 type  1   force =    -0.00004123    0.00000000    0.00019825
     The non-local contrib.  to forces
     atom    1 type  1   force =    -0.00268976    0.00000000   -3.23790575
     atom    2 type  1   force =    -0.00263629    0.00000000   -3.23810477
     atom    3 type  1   force =     0.00263629    0.00000000    3.23810477
     atom    4 type  1   force =     0.00268976    0.00000000    3.23790575
     The ionic contribution  to forces
     atom    1 type  1   force =     0.02386503   -0.00000000   11.59708108
     atom    2 type  1   force =     0.02388572    0.00000000   11.59811725
     atom    3 type  1   force =    -0.02388572    0.00000000  -11.59811725
     atom    4 type  1   force =    -0.02386503   -0.00000000  -11.59708108
     The local contribution  to forces
     atom    1 type  1   force =    -0.02113273    0.00000000   -8.35924493
     atom    2 type  1   force =    -0.02120366    0.00000000   -8.35996910
     atom    3 type  1   force =     0.02120366    0.00000000    8.35996910
     atom    4 type  1   force =     0.02113273    0.00000000    8.35924493
     The core correction contribution to forces
     atom    1 type  1   force =     0.00000000    0.00000000    0.00000000
     atom    2 type  1   force =     0.00000000    0.00000000    0.00000000
     atom    3 type  1   force =     0.00000000    0.00000000    0.00000000
     atom    4 type  1   force =     0.00000000    0.00000000    0.00000000
     The Hubbard contrib.    to forces
     atom    1 type  1   force =     0.00000000    0.00000000    0.00000000
     atom    2 type  1   force =     0.00000000    0.00000000    0.00000000
     atom    3 type  1   force =     0.00000000    0.00000000    0.00000000
     atom    4 type  1   force =     0.00000000    0.00000000    0.00000000
     The SCF correction term to forces
     atom    1 type  1   force =    -0.00000131    0.00000000   -0.00012864
     atom    2 type  1   force =     0.00000138    0.00000000   -0.00014955
     atom    3 type  1   force =    -0.00000138    0.00000000    0.00014955
     atom    4 type  1   force =     0.00000131   -0.00000000    0.00012864

     Total force =     0.000330     Total SCF correction =     0.000279
     SCF correction compared to forces is large: reduce conv_thr to get better values


     Computing stress (Cartesian axis) and pressure

          total   stress  (Ry/bohr**3)                   (kbar)     P=  299.98
   0.00204252   0.00000000   0.00000328        300.47      0.00      0.48
   0.00000000   0.00203927   0.00000000          0.00    299.99      0.00
   0.00000328   0.00000000   0.00203588          0.48      0.00    299.49

     kinetic stress (kbar)  27200.10      0.00     -3.75
                                0.00  26951.53      0.00
                               -3.75      0.00  23546.24

     local   stress (kbar) -13221.52     -0.00     79.41
                               -0.00 -14763.23      0.00
                               79.41      0.00 -23920.86

     nonloc. stress (kbar)  15425.42      0.00     -2.99
                                0.00  15312.70      0.00
                               -2.99      0.00  13412.72

     hartree stress (kbar)   6803.36      0.00    -34.01
                                0.00   7399.93     -0.00
                              -34.01     -0.00   6851.17

     exc-cor stress (kbar)  -6230.27     -0.00     -0.02
                               -0.00  -6226.53      0.00
                               -0.02      0.00  -6144.21

     corecor stress (kbar)      0.00      0.00      0.00
                                0.00      0.00      0.00
                                0.00      0.00      0.00

     ewald   stress (kbar) -29676.63      0.00    -38.15
                                0.00 -28374.42     -0.00
                              -38.15     -0.00 -13445.56

     hubbard stress (kbar)      0.00      0.00      0.00
                                0.00      0.00      0.00
                                0.00      0.00      0.00

     london  stress (kbar)      0.00      0.00      0.00
                                0.00      0.00      0.00
                                0.00      0.00      0.00

     DFT-D3  stress (kbar)      0.00      0.00      0.00
                                0.00      0.00      0.00
                                0.00      0.00      0.00

     XDM     stress (kbar)      0.00      0.00      0.00
                                0.00      0.00      0.00
                                0.00      0.00      0.00

     dft-nl  stress (kbar)      0.00      0.00      0.00
                                0.00      0.00      0.00
                                0.00      0.00      0.00

     TS-vdW  stress (kbar)      0.00      0.00      0.00
                                0.00      0.00      0.00
                                0.00      0.00      0.00



     Writing output data file O2alpha.save/
 
     init_run     :      0.42s CPU      0.48s WALL (       2 calls)
     electrons    :     53.31s CPU     62.01s WALL (      19 calls)
     update_pot   :      1.69s CPU      1.85s WALL (      17 calls)
     forces       :      1.02s CPU      1.16s WALL (      19 calls)
     stress       :      2.19s CPU      2.24s WALL (      19 calls)

     Called by init_run:
     wfcinit      :      0.21s CPU      0.22s WALL (       2 calls)
     wfcinit:atom :      0.00s CPU      0.00s WALL (      80 calls)
     wfcinit:wfcr :      0.21s CPU      0.20s WALL (      80 calls)
     potinit      :      0.08s CPU      0.09s WALL (       2 calls)
     hinit0       :      0.12s CPU      0.13s WALL (       2 calls)

     Called by electrons:
     c_bands      :     45.19s CPU     52.07s WALL (     147 calls)
     sum_band     :      6.72s CPU      7.38s WALL (     147 calls)
     v_of_rho     :      1.01s CPU      0.94s WALL (     162 calls)
     v_h          :      0.05s CPU      0.05s WALL (     162 calls)
     v_xc         :      0.95s CPU      0.89s WALL (     162 calls)
     newd         :      0.35s CPU      0.38s WALL (     162 calls)
     mix_rho      :      0.06s CPU      0.10s WALL (     147 calls)

     Called by c_bands:
     init_us_2    :      0.62s CPU      0.61s WALL (   13360 calls)
     cegterg      :     43.82s CPU     47.56s WALL (    5880 calls)

     Called by sum_band:
     sum_band:bec :      0.08s CPU      0.04s WALL (    5880 calls)
     addusdens    :      0.32s CPU      0.35s WALL (     147 calls)

     Called by *egterg:
     h_psi        :     29.55s CPU     32.44s WALL (   18154 calls)
     s_psi        :      0.46s CPU      0.61s WALL (   18154 calls)
     g_psi        :      0.36s CPU      0.28s WALL (   12194 calls)
     cdiaghg      :      7.84s CPU      8.64s WALL (   17234 calls)
     cegterg:over :      2.31s CPU      2.63s WALL (   12194 calls)
     cegterg:upda :      0.63s CPU      0.57s WALL (   12194 calls)
     cegterg:last :      0.40s CPU      0.30s WALL (    6206 calls)

     Called by h_psi:
     h_psi:pot    :     29.39s CPU     32.32s WALL (   18154 calls)
     h_psi:calbec :      1.74s CPU      1.67s WALL (   18154 calls)
     vloc_psi     :     26.93s CPU     29.81s WALL (   18154 calls)
     add_vuspsi   :      0.59s CPU      0.68s WALL (   18154 calls)

     General routines
     calbec       :      2.39s CPU      2.53s WALL (   27834 calls)
     fft          :      0.78s CPU      0.70s WALL (    2241 calls)
     ffts         :      0.03s CPU      0.03s WALL (     309 calls)
     fftw         :     29.07s CPU     32.25s WALL (  599360 calls)
     interpolate  :      0.06s CPU      0.06s WALL (     162 calls)
 
     Parallel routines
     fft_scatt_xy :      2.61s CPU      3.19s WALL (  601910 calls)
     fft_scatt_yz :     14.50s CPU     16.22s WALL (  601910 calls)
 
     PWSCF        :     59.73s CPU   1m11.51s WALL

 
   This run was terminated on:   9:37:11   5Jan2021            

=------------------------------------------------------------------------------=
   JOB DONE.
=------------------------------------------------------------------------------=
