
     Program PWSCF v.6.3MaX starts on  1Apr2021 at 18: 2:10 

     This program is part of the open-source Quantum ESPRESSO suite
     for quantum simulation of materials; please cite
         "P. Giannozzi et al., J. Phys.:Condens. Matter 21 395502 (2009);
         "P. Giannozzi et al., J. Phys.:Condens. Matter 29 465901 (2017);
          URL http://www.quantum-espresso.org", 
     in publications or presentations arising from this work. More details at
     http://www.quantum-espresso.org/quote

     Serial version
     Waiting for input...
     Reading input from standard input

     Current dimensions of program PWSCF are:
     Max number of different atomic species (ntypx) = 10
     Max number of k-points (npk) =  40000
     Max angular momentum in pseudopotentials (lmaxx) =  3
 
     G-vector sticks info
     --------------------
     sticks:   dense  smooth     PW     G-vecs:    dense   smooth      PW
     Sum        1145     505    191                24301     7157    1607
 


     bravais-lattice index     =            7
     lattice parameter (alat)  =       6.2286  a.u.
     unit-cell volume          =     256.3406 (a.u.)^3
     number of atoms/cell      =            3
     number of atomic types    =            2
     number of electrons       =        22.00
     number of Kohn-Sham states=           15
     kinetic-energy cutoff     =      35.0000  Ry
     charge density cutoff     =     315.0000  Ry
     convergence threshold     =      1.0E-06
     mixing beta               =       0.4000
     number of iterations used =            8  plain     mixing
     Exchange-correlation      = SLA PW PBE PBE ( 1  4  3  4 0 0)
     nstep                     =          100


     celldm(1)=   6.228594  celldm(2)=   0.000000  celldm(3)=   2.121668
     celldm(4)=   0.000000  celldm(5)=   0.000000  celldm(6)=   0.000000

     crystal axes: (cart. coord. in units of alat)
               a(1) = (   0.500000  -0.500000   1.060834 )  
               a(2) = (   0.500000   0.500000   1.060834 )  
               a(3) = (  -0.500000  -0.500000   1.060834 )  

     reciprocal axes: (cart. coord. in units 2 pi/alat)
               b(1) = (  1.000000 -1.000000  0.000000 )  
               b(2) = (  0.000000  1.000000  0.471327 )  
               b(3) = ( -1.000000  0.000000  0.471327 )  


     PseudoPot. # 1 for Ca read from file:
     ../pseudo/Ca.pbe-nsp-van.UPF
     MD5 check sum: cdab9c70410076c6adf7f3c9fd3601e0
     Pseudo is Ultrasoft + core correction, Zval = 10.0
     Generated by new atomic code, or converted to UPF format
     Using radial grid of  845 points,  6 beta functions with: 
                l(1) =   0
                l(2) =   0
                l(3) =   1
                l(4) =   1
                l(5) =   2
                l(6) =   2
     Q(r) pseudized with  6 coefficients,  rinner =    1.200   1.200   1.200
                                                       1.200   1.200

     PseudoPot. # 2 for O  read from file:
     ../pseudo/O.pbe-van_ak.UPF
     MD5 check sum: 572909515f9aa9498032b6eb5528d5f9
     Pseudo is Ultrasoft, Zval =  6.0
     Generated by new atomic code, or converted to UPF format
     Using radial grid of  737 points,  4 beta functions with: 
                l(1) =   0
                l(2) =   0
                l(3) =   1
                l(4) =   1
     Q(r) pseudized with  8 coefficients,  rinner =    0.800   0.800   0.800


     atomic species   valence    mass     pseudopotential
        Ca            10.00    40.07800     Ca( 1.00)
        O              6.00    15.99940     O ( 1.00)

     16 Sym. Ops., with inversion, found


                                    s                        frac. trans.

      isym =  1     identity                                     

 cryst.   s( 1) = (     1          0          0      )
                  (     0          1          0      )
                  (     0          0          1      )

 cart.    s( 1) = (  1.0000000  0.0000000  0.0000000 )
                  (  0.0000000  1.0000000  0.0000000 )
                  (  0.0000000  0.0000000  1.0000000 )


      isym =  2     180 deg rotation - cart. axis [0,0,1]        

 cryst.   s( 2) = (    -1          1          1      )
                  (     0          0          1      )
                  (     0          1          0      )

 cart.    s( 2) = ( -1.0000000  0.0000000  0.0000000 )
                  (  0.0000000 -1.0000000  0.0000000 )
                  (  0.0000000  0.0000000  1.0000000 )


      isym =  3     180 deg rotation - cart. axis [0,1,0]        

 cryst.   s( 3) = (     0         -1          0      )
                  (    -1          0          0      )
                  (     1         -1         -1      )

 cart.    s( 3) = ( -1.0000000  0.0000000  0.0000000 )
                  (  0.0000000  1.0000000  0.0000000 )
                  (  0.0000000  0.0000000 -1.0000000 )


      isym =  4     180 deg rotation - cart. axis [1,0,0]        

 cryst.   s( 4) = (     0          0         -1      )
                  (     1         -1         -1      )
                  (    -1          0          0      )

 cart.    s( 4) = (  1.0000000  0.0000000  0.0000000 )
                  (  0.0000000 -1.0000000  0.0000000 )
                  (  0.0000000  0.0000000 -1.0000000 )


      isym =  5     180 deg rotation - cart. axis [1,1,0]        

 cryst.   s( 5) = (    -1          0          0      )
                  (     0          0         -1      )
                  (     0         -1          0      )

 cart.    s( 5) = (  0.0000000  1.0000000  0.0000000 )
                  (  1.0000000  0.0000000  0.0000000 )
                  (  0.0000000  0.0000000 -1.0000000 )


      isym =  6     180 deg rotation - cart. axis [1,-1,0]       

 cryst.   s( 6) = (     1         -1         -1      )
                  (     0         -1          0      )
                  (     0          0         -1      )

 cart.    s( 6) = (  0.0000000 -1.0000000  0.0000000 )
                  ( -1.0000000  0.0000000  0.0000000 )
                  (  0.0000000  0.0000000 -1.0000000 )


      isym =  7      90 deg rotation - cart. axis [0,0,-1]       

 cryst.   s( 7) = (     0          0          1      )
                  (     1          0          0      )
                  (    -1          1          1      )

 cart.    s( 7) = (  0.0000000  1.0000000  0.0000000 )
                  ( -1.0000000  0.0000000  0.0000000 )
                  (  0.0000000  0.0000000  1.0000000 )


      isym =  8      90 deg rotation - cart. axis [0,0,1]        

 cryst.   s( 8) = (     0          1          0      )
                  (    -1          1          1      )
                  (     1          0          0      )

 cart.    s( 8) = (  0.0000000 -1.0000000  0.0000000 )
                  (  1.0000000  0.0000000  0.0000000 )
                  (  0.0000000  0.0000000  1.0000000 )


      isym =  9     inversion                                    

 cryst.   s( 9) = (    -1          0          0      )
                  (     0         -1          0      )
                  (     0          0         -1      )

 cart.    s( 9) = ( -1.0000000  0.0000000  0.0000000 )
                  (  0.0000000 -1.0000000  0.0000000 )
                  (  0.0000000  0.0000000 -1.0000000 )


      isym = 10     inv. 180 deg rotation - cart. axis [0,0,1]   

 cryst.   s(10) = (     1         -1         -1      )
                  (     0          0         -1      )
                  (     0         -1          0      )

 cart.    s(10) = (  1.0000000  0.0000000  0.0000000 )
                  (  0.0000000  1.0000000  0.0000000 )
                  (  0.0000000  0.0000000 -1.0000000 )


      isym = 11     inv. 180 deg rotation - cart. axis [0,1,0]   

 cryst.   s(11) = (     0          1          0      )
                  (     1          0          0      )
                  (    -1          1          1      )

 cart.    s(11) = (  1.0000000  0.0000000  0.0000000 )
                  (  0.0000000 -1.0000000  0.0000000 )
                  (  0.0000000  0.0000000  1.0000000 )


      isym = 12     inv. 180 deg rotation - cart. axis [1,0,0]   

 cryst.   s(12) = (     0          0          1      )
                  (    -1          1          1      )
                  (     1          0          0      )

 cart.    s(12) = ( -1.0000000  0.0000000  0.0000000 )
                  (  0.0000000  1.0000000  0.0000000 )
                  (  0.0000000  0.0000000  1.0000000 )


      isym = 13     inv. 180 deg rotation - cart. axis [1,1,0]   

 cryst.   s(13) = (     1          0          0      )
                  (     0          0          1      )
                  (     0          1          0      )

 cart.    s(13) = (  0.0000000 -1.0000000  0.0000000 )
                  ( -1.0000000  0.0000000  0.0000000 )
                  (  0.0000000  0.0000000  1.0000000 )


      isym = 14     inv. 180 deg rotation - cart. axis [1,-1,0]  

 cryst.   s(14) = (    -1          1          1      )
                  (     0          1          0      )
                  (     0          0          1      )

 cart.    s(14) = (  0.0000000  1.0000000  0.0000000 )
                  (  1.0000000  0.0000000  0.0000000 )
                  (  0.0000000  0.0000000  1.0000000 )


      isym = 15     inv.  90 deg rotation - cart. axis [0,0,-1]  

 cryst.   s(15) = (     0          0         -1      )
                  (    -1          0          0      )
                  (     1         -1         -1      )

 cart.    s(15) = (  0.0000000 -1.0000000  0.0000000 )
                  (  1.0000000  0.0000000  0.0000000 )
                  (  0.0000000  0.0000000 -1.0000000 )


      isym = 16     inv.  90 deg rotation - cart. axis [0,0,1]   

 cryst.   s(16) = (     0         -1          0      )
                  (     1         -1         -1      )
                  (    -1          0          0      )

 cart.    s(16) = (  0.0000000  1.0000000  0.0000000 )
                  ( -1.0000000  0.0000000  0.0000000 )
                  (  0.0000000  0.0000000 -1.0000000 )


     point group D_4h(4/mmm)
     there are 10 classes
     the character table:

       E     2C4   C2    2C2'  2C2'' i     2S4   s_h   2s_v  2s_d 
A_1g   1.00  1.00  1.00  1.00  1.00  1.00  1.00  1.00  1.00  1.00
A_2g   1.00  1.00  1.00 -1.00 -1.00  1.00  1.00  1.00 -1.00 -1.00
B_1g   1.00 -1.00  1.00  1.00 -1.00  1.00 -1.00  1.00  1.00 -1.00
B_2g   1.00 -1.00  1.00 -1.00  1.00  1.00 -1.00  1.00 -1.00  1.00
E_g    2.00  0.00 -2.00  0.00  0.00  2.00  0.00 -2.00  0.00  0.00
A_1u   1.00  1.00  1.00  1.00  1.00 -1.00 -1.00 -1.00 -1.00 -1.00
A_2u   1.00  1.00  1.00 -1.00 -1.00 -1.00 -1.00 -1.00  1.00  1.00
B_1u   1.00 -1.00  1.00  1.00 -1.00 -1.00  1.00 -1.00 -1.00  1.00
B_2u   1.00 -1.00  1.00 -1.00  1.00 -1.00  1.00 -1.00  1.00 -1.00
E_u    2.00  0.00 -2.00  0.00  0.00 -2.00  0.00  2.00  0.00  0.00

     the symmetry operations in each class and the name of the first element:

     E        1
          identity                                               
     2C4      7    8
           90 deg rotation - cart. axis [0,0,-1]                 
     C2       2
          180 deg rotation - cart. axis [0,0,1]                  
     2C2'     3    4
          180 deg rotation - cart. axis [0,1,0]                  
     2C2''    5    6
          180 deg rotation - cart. axis [1,1,0]                  
     i        9
          inversion                                              
     2S4     15   16
          inv.  90 deg rotation - cart. axis [0,0,-1]            
     s_h     10
          inv. 180 deg rotation - cart. axis [0,0,1]             
     2s_v    11   12
          inv. 180 deg rotation - cart. axis [0,1,0]             
     2s_d    13   14
          inv. 180 deg rotation - cart. axis [1,1,0]             

   Cartesian axes

     site n.     atom                  positions (alat units)
         1           Ca  tau(   1) = (   0.0000000   0.0000000   1.0608338  )
         2           O   tau(   2) = (   0.0000000   0.0000000   1.8911696  )
         3           O   tau(   3) = (   0.0000000   0.0000000   0.2304980  )

   Crystallographic axes

     site n.     atom                  positions (cryst. coord.)
         1           Ca  tau(   1) = (  0.0000000  0.5000000  0.5000000  )
         2           O   tau(   2) = (  0.0000000  0.8913600  0.8913600  )
         3           O   tau(   3) = (  0.0000000  0.1086400  0.1086400  )

     number of k points=    54  gaussian smearing, width (Ry)=  0.0100
                       cart. coord. in units 2pi/alat
        k(    1) = (   0.0000000   0.0000000   0.0000000), wk =   0.0138889
        k(    2) = (  -0.2500000   0.0000000   0.1178318), wk =   0.0277778
        k(    3) = (   0.5000000   0.0000000  -0.2356637), wk =   0.0555556
        k(    4) = (   0.0000000   0.1666667   0.0785546), wk =   0.0555556
        k(    5) = (  -0.2500000   0.1666667   0.1963864), wk =   0.0277778
        k(    6) = (   0.5000000   0.1666667  -0.1571091), wk =   0.1111111
        k(    7) = (   0.2500000   0.1666667  -0.0392773), wk =   0.0277778
        k(    8) = (   0.0000000   0.3333333   0.1571091), wk =   0.0555556
        k(    9) = (  -0.2500000   0.3333333   0.2749410), wk =   0.0277778
        k(   10) = (   0.5000000   0.3333333  -0.0785546), wk =   0.1111111
        k(   11) = (   0.2500000   0.3333333   0.0392773), wk =   0.0277778
        k(   12) = (  -0.2500000  -0.5000000  -0.1178318), wk =   0.0555556
        k(   13) = (   0.5000000  -0.5000000  -0.4713274), wk =   0.0277778
        k(   14) = (   0.1666667  -0.1666667   0.0000000), wk =   0.0277778
        k(   15) = (  -0.0833333  -0.1666667   0.1178318), wk =   0.0277778
        k(   16) = (   0.6666667  -0.1666667  -0.2356637), wk =   0.1111111
        k(   17) = (   0.4166667  -0.1666667  -0.1178318), wk =   0.0277778
        k(   18) = (  -0.0833333   0.0000000   0.1963864), wk =   0.0277778
        k(   19) = (   0.6666667   0.0000000  -0.1571091), wk =   0.0555556
        k(   20) = (   0.4166667   0.0000000  -0.0392773), wk =   0.0277778
        k(   21) = (   0.1666667   0.1666667   0.1571091), wk =   0.0277778
        k(   22) = (  -0.0833333   0.1666667   0.2749410), wk =   0.0277778
        k(   23) = (   0.6666667   0.1666667  -0.0785546), wk =   0.0555556
        k(   24) = (   0.4166667   0.1666667   0.0392773), wk =   0.0277778
        k(   25) = (  -0.0833333  -0.6666667  -0.1178318), wk =   0.0277778
        k(   26) = (   0.6666667  -0.6666667  -0.4713274), wk =   0.0277778
        k(   27) = (   0.4166667  -0.6666667  -0.3534955), wk =   0.0277778
        k(   28) = (  -0.0833333  -0.5000000  -0.0392773), wk =   0.0555556
        k(   29) = (   0.4166667  -0.5000000  -0.2749410), wk =   0.0555556
        k(   30) = (   0.1666667  -0.3333333  -0.0785546), wk =   0.0555556
        k(   31) = (  -0.0833333  -0.3333333   0.0392773), wk =   0.0277778
        k(   32) = (   0.6666667  -0.3333333  -0.3142182), wk =   0.0277778
        k(   33) = (   0.4166667  -0.3333333  -0.1963864), wk =   0.0277778
        k(   34) = (   0.3333333  -0.3333333   0.0000000), wk =   0.0277778
        k(   35) = (   0.0833333  -0.3333333   0.1178318), wk =   0.0277778
        k(   36) = (   0.5833333  -0.3333333  -0.1178318), wk =   0.0277778
        k(   37) = (   0.0833333  -0.1666667   0.1963864), wk =   0.0277778
        k(   38) = (   0.8333333  -0.1666667  -0.1571091), wk =   0.0277778
        k(   39) = (   0.5833333  -0.1666667  -0.0392773), wk =   0.0277778
        k(   40) = (   0.0833333   0.0000000   0.2749410), wk =   0.0277778
        k(   41) = (   0.8333333   0.0000000  -0.0785546), wk =   0.0555556
        k(   42) = (   0.5833333   0.0000000   0.0392773), wk =   0.0277778
        k(   43) = (   0.0833333  -0.8333333  -0.1178318), wk =   0.0277778
        k(   44) = (   0.8333333  -0.8333333  -0.4713274), wk =   0.0277778
        k(   45) = (   0.5833333  -0.8333333  -0.3534955), wk =   0.0277778
        k(   46) = (   0.3333333  -0.6666667  -0.1571091), wk =   0.0277778
        k(   47) = (   0.0833333  -0.6666667  -0.0392773), wk =   0.0277778
        k(   48) = (   0.5833333  -0.6666667  -0.2749410), wk =   0.0277778
        k(   49) = (  -0.7500000   0.6666667   0.1963864), wk =   0.0277778
        k(   50) = (  -0.2500000   0.6666667  -0.0392773), wk =   0.0277778
        k(   51) = (  -0.7500000   0.8333333   0.2749410), wk =   0.0277778
        k(   52) = (  -0.2500000   0.8333333   0.0392773), wk =   0.0277778
        k(   53) = (  -0.7500000   0.0000000  -0.1178318), wk =   0.0277778
        k(   54) = (   0.0000000   0.0000000  -0.4713274), wk =   0.0138889

                       cryst. coord.
        k(    1) = (   0.0000000   0.0000000   0.0000000), wk =   0.0138889
        k(    2) = (   0.0000000   0.0000000   0.2500000), wk =   0.0277778
        k(    3) = (   0.0000000   0.0000000  -0.5000000), wk =   0.0555556
        k(    4) = (   0.0000000   0.1666667   0.0000000), wk =   0.0555556
        k(    5) = (   0.0000000   0.1666667   0.2500000), wk =   0.0277778
        k(    6) = (   0.0000000   0.1666667  -0.5000000), wk =   0.1111111
        k(    7) = (   0.0000000   0.1666667  -0.2500000), wk =   0.0277778
        k(    8) = (   0.0000000   0.3333333   0.0000000), wk =   0.0555556
        k(    9) = (   0.0000000   0.3333333   0.2500000), wk =   0.0277778
        k(   10) = (   0.0000000   0.3333333  -0.5000000), wk =   0.1111111
        k(   11) = (   0.0000000   0.3333333  -0.2500000), wk =   0.0277778
        k(   12) = (   0.0000000  -0.5000000   0.2500000), wk =   0.0555556
        k(   13) = (   0.0000000  -0.5000000  -0.5000000), wk =   0.0277778
        k(   14) = (   0.1666667   0.0000000   0.0000000), wk =   0.0277778
        k(   15) = (   0.1666667   0.0000000   0.2500000), wk =   0.0277778
        k(   16) = (   0.1666667   0.0000000  -0.5000000), wk =   0.1111111
        k(   17) = (   0.1666667  -0.0000000  -0.2500000), wk =   0.0277778
        k(   18) = (   0.1666667   0.1666667   0.2500000), wk =   0.0277778
        k(   19) = (   0.1666667   0.1666667  -0.5000000), wk =   0.0555556
        k(   20) = (   0.1666667   0.1666667  -0.2500000), wk =   0.0277778
        k(   21) = (   0.1666667   0.3333333   0.0000000), wk =   0.0277778
        k(   22) = (   0.1666667   0.3333333   0.2500000), wk =   0.0277778
        k(   23) = (   0.1666667   0.3333333  -0.5000000), wk =   0.0555556
        k(   24) = (   0.1666667   0.3333333  -0.2500000), wk =   0.0277778
        k(   25) = (   0.1666667  -0.5000000   0.2500000), wk =   0.0277778
        k(   26) = (   0.1666667  -0.5000000  -0.5000000), wk =   0.0277778
        k(   27) = (   0.1666667  -0.5000000  -0.2500000), wk =   0.0277778
        k(   28) = (   0.1666667  -0.3333333   0.2500000), wk =   0.0555556
        k(   29) = (   0.1666667  -0.3333333  -0.2500000), wk =   0.0555556
        k(   30) = (   0.1666667  -0.1666667  -0.0000000), wk =   0.0555556
        k(   31) = (   0.1666667  -0.1666667   0.2500000), wk =   0.0277778
        k(   32) = (   0.1666667  -0.1666667  -0.5000000), wk =   0.0277778
        k(   33) = (   0.1666667  -0.1666667  -0.2500000), wk =   0.0277778
        k(   34) = (   0.3333333   0.0000000   0.0000000), wk =   0.0277778
        k(   35) = (   0.3333333   0.0000000   0.2500000), wk =   0.0277778
        k(   36) = (   0.3333333  -0.0000000  -0.2500000), wk =   0.0277778
        k(   37) = (   0.3333333   0.1666667   0.2500000), wk =   0.0277778
        k(   38) = (   0.3333333   0.1666667  -0.5000000), wk =   0.0277778
        k(   39) = (   0.3333333   0.1666667  -0.2500000), wk =   0.0277778
        k(   40) = (   0.3333333   0.3333333   0.2500000), wk =   0.0277778
        k(   41) = (   0.3333333   0.3333333  -0.5000000), wk =   0.0555556
        k(   42) = (   0.3333333   0.3333333  -0.2500000), wk =   0.0277778
        k(   43) = (   0.3333333  -0.5000000   0.2500000), wk =   0.0277778
        k(   44) = (   0.3333333  -0.5000000  -0.5000000), wk =   0.0277778
        k(   45) = (   0.3333333  -0.5000000  -0.2500000), wk =   0.0277778
        k(   46) = (   0.3333333  -0.3333333   0.0000000), wk =   0.0277778
        k(   47) = (   0.3333333  -0.3333333   0.2500000), wk =   0.0277778
        k(   48) = (   0.3333333  -0.3333333  -0.2500000), wk =   0.0277778
        k(   49) = (  -0.5000000   0.1666667   0.2500000), wk =   0.0277778
        k(   50) = (  -0.5000000   0.1666667  -0.2500000), wk =   0.0277778
        k(   51) = (  -0.5000000   0.3333333   0.2500000), wk =   0.0277778
        k(   52) = (  -0.5000000   0.3333333  -0.2500000), wk =   0.0277778
        k(   53) = (  -0.5000000  -0.5000000   0.2500000), wk =   0.0277778
        k(   54) = (  -0.5000000  -0.5000000  -0.5000000), wk =   0.0138889

     Dense  grid:    24301 G-vectors     FFT dimensions: (  45,  45,  45)

     Smooth grid:     7157 G-vectors     FFT dimensions: (  30,  30,  30)

     Dynamical RAM for                 wfc:       0.21 MB

     Dynamical RAM for     wfc (w. buffer):      11.28 MB

     Dynamical RAM for           str. fact:       0.74 MB

     Dynamical RAM for           local pot:       0.00 MB

     Dynamical RAM for          nlocal pot:       0.46 MB

     Dynamical RAM for                qrad:       5.65 MB

     Dynamical RAM for          rho,v,vnew:       3.20 MB

     Dynamical RAM for               rhoin:       1.07 MB

     Dynamical RAM for            rho*nmix:       5.93 MB

     Dynamical RAM for           G-vectors:       1.45 MB

     Dynamical RAM for          h,s,v(r/c):       0.16 MB

     Dynamical RAM for          <psi|beta>:       0.01 MB

     Dynamical RAM for                 psi:       0.82 MB

     Dynamical RAM for                hpsi:       0.82 MB

     Dynamical RAM for                spsi:       0.82 MB

     Dynamical RAM for      wfcinit/wfcrot:       0.50 MB

     Dynamical RAM for           addusdens:      69.71 MB

     Dynamical RAM for          addusforce:      71.76 MB

     Dynamical RAM for         addusstress:      74.53 MB

     Estimated static dynamical RAM per process >      34.37 MB

     Estimated max dynamical RAM per process >     108.90 MB

     Check: negative/imaginary core charge=   -0.000003    0.000000

     Initial potential from superposition of free atoms
     Check: negative starting charge=   -0.000212

     starting charge   21.99454, renormalised to   22.00000

     negative rho (up, down):  2.124E-04 0.000E+00
     Starting wfcs are   18 randomized atomic wfcs

     total cpu time spent up to now is        3.3 secs

     Self-consistent Calculation

     iteration #  1     ecut=    35.00 Ry     beta= 0.40
     Davidson diagonalization with overlap
     ethr =  1.00E-02,  avg # of iterations =  2.0

     negative rho (up, down):  2.222E-04 0.000E+00

     total cpu time spent up to now is        6.1 secs

     total energy              =    -138.95126776 Ry
     Harris-Foulkes estimate   =    -139.07330126 Ry
     estimated scf accuracy    <       0.29495533 Ry

     iteration #  2     ecut=    35.00 Ry     beta= 0.40
     Davidson diagonalization with overlap
     ethr =  1.34E-03,  avg # of iterations =  2.2

     negative rho (up, down):  2.091E-04 0.000E+00

     total cpu time spent up to now is        9.0 secs

     total energy              =    -139.00794906 Ry
     Harris-Foulkes estimate   =    -139.01209724 Ry
     estimated scf accuracy    <       0.02650793 Ry

     iteration #  3     ecut=    35.00 Ry     beta= 0.40
     Davidson diagonalization with overlap
     ethr =  1.20E-04,  avg # of iterations =  2.6

     negative rho (up, down):  1.993E-04 0.000E+00

     total cpu time spent up to now is       11.9 secs

     total energy              =    -139.00954374 Ry
     Harris-Foulkes estimate   =    -139.01008777 Ry
     estimated scf accuracy    <       0.00767481 Ry

     iteration #  4     ecut=    35.00 Ry     beta= 0.40
     Davidson diagonalization with overlap
     ethr =  3.49E-05,  avg # of iterations =  3.0

     negative rho (up, down):  1.994E-04 0.000E+00

     total cpu time spent up to now is       14.6 secs

     total energy              =    -139.01012682 Ry
     Harris-Foulkes estimate   =    -139.01005237 Ry
     estimated scf accuracy    <       0.00013169 Ry

     iteration #  5     ecut=    35.00 Ry     beta= 0.40
     Davidson diagonalization with overlap
     ethr =  5.99E-07,  avg # of iterations =  5.2

     negative rho (up, down):  1.997E-04 0.000E+00

     total cpu time spent up to now is       19.1 secs

     total energy              =    -139.01021806 Ry
     Harris-Foulkes estimate   =    -139.01020982 Ry
     estimated scf accuracy    <       0.00002104 Ry

     iteration #  6     ecut=    35.00 Ry     beta= 0.40
     Davidson diagonalization with overlap
     ethr =  9.56E-08,  avg # of iterations =  2.0

     negative rho (up, down):  1.996E-04 0.000E+00

     total cpu time spent up to now is       21.9 secs

     total energy              =    -139.01022409 Ry
     Harris-Foulkes estimate   =    -139.01022113 Ry
     estimated scf accuracy    <       0.00000162 Ry

     iteration #  7     ecut=    35.00 Ry     beta= 0.40
     Davidson diagonalization with overlap
     ethr =  7.36E-09,  avg # of iterations =  2.4

     negative rho (up, down):  1.994E-04 0.000E+00

     total cpu time spent up to now is       24.9 secs

     End of self-consistent calculation

          k = 0.0000 0.0000 0.0000 (   893 PWs)   bands (ev):

   -31.6741 -13.4730 -12.6422 -12.5443 -12.5443  -6.9091   1.0506   4.1145
     4.1145   6.4564   6.4564  11.1392  11.9024  13.0840  13.8915

     occupation numbers 
     1.0000   1.0000   1.0000   1.0000   1.0000   1.0000   1.0000   1.0000
     1.0000   1.0000   1.0000   0.0000   0.0000   0.0000   0.0000

          k =-0.2500 0.0000 0.1178 (   902 PWs)   bands (ev):

   -31.6453 -14.1564 -12.6346 -12.5087 -11.8319  -7.0937   1.4915   3.1564
     3.6212   6.4254   6.8328  11.1910  12.3460  13.9539  14.5029

     occupation numbers 
     1.0000   1.0000   1.0000   1.0000   1.0000   1.0000   1.0000   1.0000
     1.0000   1.0000   1.0000   0.0000   0.0000   0.0000   0.0000

          k = 0.5000 0.0000-0.2357 (   898 PWs)   bands (ev):

   -31.6163 -14.5671 -12.6266 -12.4725 -11.3805  -7.2777   2.0680   2.2320
     3.1878   6.5283   7.2442  10.5596  13.1259  13.8785  14.3192

     occupation numbers 
     1.0000   1.0000   1.0000   1.0000   1.0000   1.0000   1.0000   1.0000
     1.0000   1.0000   1.0000   0.0000   0.0000   0.0000   0.0000

          k = 0.0000 0.1667 0.0786 (   900 PWs)   bands (ev):

   -31.6598 -13.8838 -12.6379 -12.5266 -12.1209  -7.0016   1.2683   3.6100
     3.8585   6.4273   6.6419  11.5069  11.7199  13.9282  14.1160

     occupation numbers 
     1.0000   1.0000   1.0000   1.0000   1.0000   1.0000   1.0000   1.0000
     1.0000   1.0000   1.0000   0.0000   0.0000   0.0000   0.0000

          k =-0.2500 0.1667 0.1964 (   894 PWs)   bands (ev):

   -31.6316 -14.1277 -12.6673 -12.6428 -11.7668  -7.1769   1.8629   2.9183
     3.5571   6.3705   6.9852  10.7111  12.7895  13.7949  14.4080

     occupation numbers 
     1.0000   1.0000   1.0000   1.0000   1.0000   1.0000   1.0000   1.0000
     1.0000   1.0000   1.0000   0.0000   0.0000   0.0000   0.0000

          k = 0.5000 0.1667-0.1571 (   897 PWs)   bands (ev):

   -31.6055 -14.3883 -12.6170 -12.5919 -11.6316  -7.2242   1.9732   2.5905
     3.2199   6.2228   6.9129  10.7952  13.6338  14.2248  14.4918

     occupation numbers 
     1.0000   1.0000   1.0000   1.0000   1.0000   1.0000   1.0000   1.0000
     1.0000   1.0000   1.0000   0.0000   0.0000   0.0000   0.0000

          k = 0.2500 0.1667-0.0393 (   906 PWs)   bands (ev):

   -31.6339 -14.1395 -12.6555 -12.6057 -11.7925  -7.0444   1.3408   3.0204
     3.7652   5.9209   6.9377  11.6585  12.8930  13.8815  14.1998

     occupation numbers 
     1.0000   1.0000   1.0000   1.0000   1.0000   1.0000   1.0000   1.0000
     1.0000   1.0000   1.0000   0.0000   0.0000   0.0000   0.0000

          k = 0.0000 0.3333 0.1571 (   902 PWs)   bands (ev):

   -31.6308 -14.3766 -12.6309 -12.4907 -11.5926  -7.1856   1.7282   2.7303
     3.3985   6.4562   7.0323  10.8834  13.0555  13.5500  14.5803

     occupation numbers 
     1.0000   1.0000   1.0000   1.0000   1.0000   1.0000   1.0000   1.0000
     1.0000   1.0000   1.0000   0.0000   0.0000   0.0000   0.0000

          k =-0.2500 0.3333 0.2749 (   898 PWs)   bands (ev):

   -31.6063 -14.1306 -12.7651 -12.6339 -11.8135  -7.2156   2.1891   2.7694
     3.2716   6.3997   6.5936  10.6330  13.8505  13.9488  14.6793

     occupation numbers 
     1.0000   1.0000   1.0000   1.0000   1.0000   1.0000   1.0000   1.0000
     1.0000   1.0000   1.0000   0.0000   0.0000   0.0000   0.0000

          k = 0.5000 0.3333-0.0786 (   901 PWs)   bands (ev):

   -31.5839 -13.8861 -12.8223 -12.5984 -12.2738  -7.1176   2.0480   2.9276
     3.4012   5.4114   6.6734  11.2051  14.4638  14.6557  14.7764

     occupation numbers 
     1.0000   1.0000   1.0000   1.0000   1.0000   1.0000   1.0000   1.0000
     1.0000   1.0000   1.0000   0.0000   0.0000   0.0000   0.0000

          k = 0.2500 0.3333 0.0393 (   903 PWs)   bands (ev):

   -31.6086 -14.1485 -12.7492 -12.5907 -11.8415  -7.0830   1.5373   2.8559
     3.6509   5.5593   6.9754  11.5523  13.9199  14.0553  14.2173

     occupation numbers 
     1.0000   1.0000   1.0000   1.0000   1.0000   1.0000   1.0000   1.0000
     1.0000   1.0000   1.0000   0.0000   0.0000   0.0000   0.0000

          k =-0.2500-0.5000-0.1178 (   897 PWs)   bands (ev):

   -31.5947 -14.1725 -12.7084 -12.6073 -11.9184  -7.1708   1.9900   2.8178
     3.2701   5.8266   6.7581  11.0066  14.0912  14.5610  14.6522

     occupation numbers 
     1.0000   1.0000   1.0000   1.0000   1.0000   1.0000   1.0000   1.0000
     1.0000   1.0000   1.0000   0.0000   0.0000   0.0000   0.0000

          k = 0.5000-0.5000-0.4713 (   888 PWs)   bands (ev):

   -31.5730 -13.3016 -12.9511 -12.9162 -12.5817  -7.0642   2.1449   2.9170
     3.6332   4.9903   6.6164  11.3961  14.4857  14.5929  14.9385

     occupation numbers 
     1.0000   1.0000   1.0000   1.0000   1.0000   1.0000   1.0000   1.0000
     1.0000   1.0000   1.0000   0.0000   0.0000   0.0000   0.0000

          k = 0.1667-0.1667 0.0000 (   904 PWs)   bands (ev):

   -31.6473 -14.0100 -12.6385 -12.6145 -11.9162  -6.9976   1.2257   3.2574
     3.9034   6.0496   6.8276  11.7985  12.3018  13.8264  14.0551

     occupation numbers 
     1.0000   1.0000   1.0000   1.0000   1.0000   1.0000   1.0000   1.0000
     1.0000   1.0000   1.0000   0.0000   0.0000   0.0000   0.0000

          k =-0.0833-0.1667 0.1178 (   899 PWs)   bands (ev):

   -31.6556 -13.9137 -12.6462 -12.5770 -12.0392  -7.0497   1.4238   3.4481
     3.8482   6.3990   6.7916  11.2194  11.8299  13.9463  14.2126

     occupation numbers 
     1.0000   1.0000   1.0000   1.0000   1.0000   1.0000   1.0000   1.0000
     1.0000   1.0000   1.0000   0.0000   0.0000   0.0000   0.0000

          k = 0.6667-0.1667-0.2357 (   892 PWs)   bands (ev):

   -31.6181 -14.2562 -12.6534 -12.6281 -11.6809  -7.2237   2.0570   2.6811
     3.3569   6.4208   6.9200  10.6008  13.4603  13.6541  14.6745

     occupation numbers 
     1.0000   1.0000   1.0000   1.0000   1.0000   1.0000   1.0000   1.0000
     1.0000   1.0000   1.0000   0.0000   0.0000   0.0000   0.0000

          k = 0.4167-0.1667-0.1178 (   902 PWs)   bands (ev):

   -31.6097 -14.3581 -12.6110 -12.6001 -11.6527  -7.1761   1.7415   2.7069
     3.3362   6.0227   6.9872  11.0644  13.6574  14.0361  14.5848

     occupation numbers 
     1.0000   1.0000   1.0000   1.0000   1.0000   1.0000   1.0000   1.0000
     1.0000   1.0000   1.0000   0.0000   0.0000   0.0000   0.0000

          k =-0.0833 0.0000 0.1964 (   902 PWs)   bands (ev):

   -31.6667 -13.5961 -12.6962 -12.5457 -12.3836  -7.1197   1.7492   3.8156
     3.8974   6.7803   6.8319  10.6675  11.1188  13.5380  14.5532

     occupation numbers 
     1.0000   1.0000   1.0000   1.0000   1.0000   1.0000   1.0000   1.0000
     1.0000   1.0000   1.0000   0.0000   0.0000   0.0000   0.0000

          k = 0.6667 0.0000-0.1571 (   887 PWs)   bands (ev):

   -31.6281 -14.3542 -12.6949 -12.4952 -11.5754  -7.2875   2.1676   2.6386
     3.3195   6.6876   7.2742  10.5536  12.9443  13.4768  14.5243

     occupation numbers 
     1.0000   1.0000   1.0000   1.0000   1.0000   1.0000   1.0000   1.0000
     1.0000   1.0000   1.0000   0.0000   0.0000   0.0000   0.0000

          k = 0.4167 0.0000-0.0393 (   903 PWs)   bands (ev):

   -31.6211 -14.5180 -12.6163 -12.4758 -11.4539  -7.1751   1.5041   2.6921
     3.2753   6.2635   7.0836  11.4841  13.3997  13.5726  14.2510

     occupation numbers 
     1.0000   1.0000   1.0000   1.0000   1.0000   1.0000   1.0000   1.0000
     1.0000   1.0000   1.0000   0.0000   0.0000   0.0000   0.0000

          k = 0.1667 0.1667 0.1571 (   891 PWs)   bands (ev):

   -31.6453 -14.0016 -12.6485 -12.6440 -11.8947  -7.1135   1.6362   3.1843
     3.7491   6.3587   6.9386  10.9345  12.2076  13.9863  14.1533

     occupation numbers 
     1.0000   1.0000   1.0000   1.0000   1.0000   1.0000   1.0000   1.0000
     1.0000   1.0000   1.0000   0.0000   0.0000   0.0000   0.0000

          k =-0.0833 0.1667 0.2749 (   893 PWs)   bands (ev):

   -31.6513 -13.8780 -12.7382 -12.5859 -12.0148  -7.2356   2.1787   3.3020
     3.6510   6.8726   7.0824  10.4026  11.6357  14.0223  14.2624

     occupation numbers 
     1.0000   1.0000   1.0000   1.0000   1.0000   1.0000   1.0000   1.0000
     1.0000   1.0000   1.0000   0.0000   0.0000   0.0000   0.0000

          k = 0.6667 0.1667-0.0786 (   896 PWs)   bands (ev):

   -31.6161 -14.2269 -12.7003 -12.6474 -11.6803  -7.2686   2.2062   2.8345
     3.2362   6.4898   7.0384  10.8785  13.3669  13.6769  14.3294

     occupation numbers 
     1.0000   1.0000   1.0000   1.0000   1.0000   1.0000   1.0000   1.0000
     1.0000   1.0000   1.0000   0.0000   0.0000   0.0000   0.0000

          k = 0.4167 0.1667 0.0393 (   895 PWs)   bands (ev):

   -31.6100 -14.3568 -12.6060 -12.6017 -11.6613  -7.1442   1.5916   2.7792
     3.3868   5.8558   7.0360  11.4729  13.7300  13.9074  14.3807

     occupation numbers 
     1.0000   1.0000   1.0000   1.0000   1.0000   1.0000   1.0000   1.0000
     1.0000   1.0000   1.0000   0.0000   0.0000   0.0000   0.0000

          k =-0.0833-0.6667-0.1178 (   887 PWs)   bands (ev):

   -31.6246 -14.3170 -12.7056 -12.5388 -11.6000  -7.2888   2.1679   2.7336
     3.2937   6.6542   7.2204  10.6838  13.0394  13.5257  14.4302

     occupation numbers 
     1.0000   1.0000   1.0000   1.0000   1.0000   1.0000   1.0000   1.0000
     1.0000   1.0000   1.0000   0.0000   0.0000   0.0000   0.0000

          k = 0.6667-0.6667-0.4713 (   886 PWs)   bands (ev):

   -31.5940 -13.9790 -12.8552 -12.6482 -12.0034  -7.1871   2.2565   3.0380
     3.1080   5.7865   6.7975  11.1959  14.1909  14.3670  14.4878

     occupation numbers 
     1.0000   1.0000   1.0000   1.0000   1.0000   1.0000   1.0000   1.0000
     1.0000   1.0000   1.0000   0.0000   0.0000   0.0000   0.0000

          k = 0.4167-0.6667-0.3535 (   894 PWs)   bands (ev):

   -31.5874 -13.9289 -12.8359 -12.5901 -12.1843  -7.1135   1.9451   2.8983
     3.4605   5.5017   6.6574  11.0866  14.3436  14.6923  14.8014

     occupation numbers 
     1.0000   1.0000   1.0000   1.0000   1.0000   1.0000   1.0000   1.0000
     1.0000   1.0000   1.0000   0.0000   0.0000   0.0000   0.0000

          k =-0.0833-0.5000-0.0393 (   897 PWs)   bands (ev):

   -31.6134 -14.5139 -12.6359 -12.5048 -11.4570  -7.2242   1.6660   2.6856
     3.2054   6.2387   7.1805  11.3356  13.3854  13.7662  14.3537

     occupation numbers 
     1.0000   1.0000   1.0000   1.0000   1.0000   1.0000   1.0000   1.0000
     1.0000   1.0000   1.0000   0.0000   0.0000   0.0000   0.0000

          k = 0.4167-0.5000-0.2749 (   904 PWs)   bands (ev):

   -31.5759 -13.5700 -12.9042 -12.7152 -12.5026  -7.1130   2.2292   3.0734
     3.2408   5.7349   6.1277  10.8126  14.5704  14.8113  14.9093

     occupation numbers 
     1.0000   1.0000   1.0000   1.0000   1.0000   1.0000   1.0000   1.0000
     1.0000   1.0000   1.0000   0.0000   0.0000   0.0000   0.0000

          k = 0.1667-0.3333-0.0786 (   900 PWs)   bands (ev):

   -31.6202 -14.2676 -12.6351 -12.6019 -11.7042  -7.1100   1.5212   2.8388
     3.5469   5.9103   6.9984  11.3809  13.5183  13.7763  14.4025

     occupation numbers 
     1.0000   1.0000   1.0000   1.0000   1.0000   1.0000   1.0000   1.0000
     1.0000   1.0000   1.0000   0.0000   0.0000   0.0000   0.0000

          k =-0.0833-0.3333 0.0393 (   905 PWs)   bands (ev):

   -31.6290 -14.3504 -12.6076 -12.5300 -11.6335  -7.1011   1.4079   2.8761
     3.4846   6.1199   6.9582  11.5927  13.1801  13.7662  14.1341

     occupation numbers 
     1.0000   1.0000   1.0000   1.0000   1.0000   1.0000   1.0000   1.0000
     1.0000   1.0000   1.0000   0.0000   0.0000   0.0000   0.0000

          k = 0.6667-0.3333-0.3142 (   902 PWs)   bands (ev):

   -31.5960 -14.0215 -12.8322 -12.5933 -12.0014  -7.1352   1.9097   2.8606
     3.4473   5.7482   6.6882  10.9163  14.0972  14.5940  14.6681

     occupation numbers 
     1.0000   1.0000   1.0000   1.0000   1.0000   1.0000   1.0000   1.0000
     1.0000   1.0000   1.0000   0.0000   0.0000   0.0000   0.0000

          k = 0.4167-0.3333-0.1964 (   900 PWs)   bands (ev):

   -31.5871 -13.9290 -12.8417 -12.5966 -12.1690  -7.1446   2.1031   2.9124
     3.2990   5.8587   6.3937  10.7850  14.3364  14.7200  14.8791

     occupation numbers 
     1.0000   1.0000   1.0000   1.0000   1.0000   1.0000   1.0000   1.0000
     1.0000   1.0000   1.0000   0.0000   0.0000   0.0000   0.0000

          k = 0.3333-0.3333 0.0000 (   906 PWs)   bands (ev):

   -31.5967 -14.0222 -12.8245 -12.5840 -12.0218  -7.0748   1.6483   2.8705
     3.6790   5.3203   6.9090  11.5689  14.0926  14.2543  14.6143

     occupation numbers 
     1.0000   1.0000   1.0000   1.0000   1.0000   1.0000   1.0000   1.0000
     1.0000   1.0000   1.0000   0.0000   0.0000   0.0000   0.0000

          k = 0.0833-0.3333 0.1178 (   897 PWs)   bands (ev):

   -31.6283 -14.3493 -12.6180 -12.5310 -11.6229  -7.1479   1.5936   2.7988
     3.4447   6.2591   6.9984  11.1328  13.1860  13.6269  14.6077

     occupation numbers 
     1.0000   1.0000   1.0000   1.0000   1.0000   1.0000   1.0000   1.0000
     1.0000   1.0000   1.0000   0.0000   0.0000   0.0000   0.0000

          k = 0.5833-0.3333-0.1178 (   896 PWs)   bands (ev):

   -31.5865 -13.9101 -12.8537 -12.6120 -12.1762  -7.1552   2.2087   2.9909
     3.1821   5.7226   6.5507  10.9704  14.3739  14.6995  14.9037

     occupation numbers 
     1.0000   1.0000   1.0000   1.0000   1.0000   1.0000   1.0000   1.0000
     1.0000   1.0000   1.0000   0.0000   0.0000   0.0000   0.0000

          k = 0.0833-0.1667 0.1964 (   896 PWs)   bands (ev):

   -31.6536 -13.9017 -12.6847 -12.5810 -12.0237  -7.1482   1.7944   3.3697
     3.7483   6.6308   6.9362  10.6953  11.7378  13.9902  14.2806

     occupation numbers 
     1.0000   1.0000   1.0000   1.0000   1.0000   1.0000   1.0000   1.0000
     1.0000   1.0000   1.0000   0.0000   0.0000   0.0000   0.0000

          k = 0.8333-0.1667-0.1571 (   893 PWs)   bands (ev):

   -31.6413 -13.9596 -12.7430 -12.6552 -11.8763  -7.2668   2.3223   3.1036
     3.5191   6.9082   7.0452  10.4353  12.0293  13.9586  14.1709

     occupation numbers 
     1.0000   1.0000   1.0000   1.0000   1.0000   1.0000   1.0000   1.0000
     1.0000   1.0000   1.0000   0.0000   0.0000   0.0000   0.0000

          k = 0.5833-0.1667-0.0393 (   893 PWs)   bands (ev):

   -31.6077 -14.3338 -12.6610 -12.6113 -11.6465  -7.2369   1.9707   2.8058
     3.1946   6.1797   7.0644  11.1704  13.6971  13.9150  14.2820

     occupation numbers 
     1.0000   1.0000   1.0000   1.0000   1.0000   1.0000   1.0000   1.0000
     1.0000   1.0000   1.0000   0.0000   0.0000   0.0000   0.0000

          k = 0.0833 0.0000 0.2749 (   889 PWs)   bands (ev):

   -31.6640 -13.5648 -12.7540 -12.5502 -12.3824  -7.2198   2.1778   3.7241
     3.8086   7.0022   7.0548  10.3227  11.0014  13.6257  14.5784

     occupation numbers 
     1.0000   1.0000   1.0000   1.0000   1.0000   1.0000   1.0000   1.0000
     1.0000   1.0000   1.0000   0.0000   0.0000   0.0000   0.0000

          k = 0.8333 0.0000-0.0786 (   885 PWs)   bands (ev):

   -31.6518 -13.7988 -12.8287 -12.5400 -12.0906  -7.3070   2.5312   3.3521
     3.5970   7.0901   7.3281  10.4017  11.3628  13.9296  14.3960

     occupation numbers 
     1.0000   1.0000   1.0000   1.0000   1.0000   1.0000   1.0000   1.0000
     1.0000   1.0000   1.0000   0.0000   0.0000   0.0000   0.0000

          k = 0.5833 0.0000 0.0393 (   895 PWs)   bands (ev):

   -31.6185 -14.4963 -12.6811 -12.4803 -11.4351  -7.2785   1.8143   2.7290
     3.1984   6.4827   7.3306  11.1431  13.2736  13.5365  14.1154

     occupation numbers 
     1.0000   1.0000   1.0000   1.0000   1.0000   1.0000   1.0000   1.0000
     1.0000   1.0000   1.0000   0.0000   0.0000   0.0000   0.0000

          k = 0.0833-0.8333-0.1178 (   891 PWs)   bands (ev):

   -31.6493 -13.8471 -12.7951 -12.5903 -12.0140  -7.2903   2.4469   3.2853
     3.5780   7.0414   7.2050  10.3888  11.5506  14.0033  14.2380

     occupation numbers 
     1.0000   1.0000   1.0000   1.0000   1.0000   1.0000   1.0000   1.0000
     1.0000   1.0000   1.0000   0.0000   0.0000   0.0000   0.0000

          k = 0.8333-0.8333-0.4713 (   884 PWs)   bands (ev):

   -31.6393 -13.9225 -12.8079 -12.6607 -11.8778  -7.3082   2.5031   3.1846
     3.4279   7.0174   7.1654  10.6650  11.9448  13.9648  14.0025

     occupation numbers 
     1.0000   1.0000   1.0000   1.0000   1.0000   1.0000   1.0000   1.0000
     1.0000   1.0000   1.0000   0.0000   0.0000   0.0000   0.0000

          k = 0.5833-0.8333-0.3535 (   897 PWs)   bands (ev):

   -31.6080 -14.3415 -12.6489 -12.6091 -11.6420  -7.2435   2.0562   2.6840
     3.2034   6.3000   6.9670  10.8653  13.6478  13.9835  14.5557

     occupation numbers 
     1.0000   1.0000   1.0000   1.0000   1.0000   1.0000   1.0000   1.0000
     1.0000   1.0000   1.0000   0.0000   0.0000   0.0000   0.0000

          k = 0.3333-0.6667-0.1571 (   898 PWs)   bands (ev):

   -31.5947 -14.0004 -12.8475 -12.6241 -11.9931  -7.1908   2.2534   2.9288
     3.1487   6.1363   6.4643  10.7674  14.1114  14.5218  14.7047

     occupation numbers 
     1.0000   1.0000   1.0000   1.0000   1.0000   1.0000   1.0000   1.0000
     1.0000   1.0000   1.0000   0.0000   0.0000   0.0000   0.0000

          k = 0.0833-0.6667-0.0393 (   896 PWs)   bands (ev):

   -31.6240 -14.3059 -12.7282 -12.5405 -11.6020  -7.2949   2.1110   2.8687
     3.2725   6.6245   7.2863  10.9351  13.0074  13.5431  14.0897

     occupation numbers 
     1.0000   1.0000   1.0000   1.0000   1.0000   1.0000   1.0000   1.0000
     1.0000   1.0000   1.0000   0.0000   0.0000   0.0000   0.0000

          k = 0.5833-0.6667-0.2749 (   896 PWs)   bands (ev):

   -31.5868 -13.9221 -12.8482 -12.6042 -12.1664  -7.1598   2.2082   2.9573
     3.1796   6.0406   6.2514  10.7466  14.3469  14.7304  14.8942

     occupation numbers 
     1.0000   1.0000   1.0000   1.0000   1.0000   1.0000   1.0000   1.0000
     1.0000   1.0000   1.0000   0.0000   0.0000   0.0000   0.0000

          k =-0.7500 0.6667 0.1964 (   895 PWs)   bands (ev):

   -31.6072 -14.1426 -12.7585 -12.6111 -11.8190  -7.1761   1.9547   2.7886
     3.3991   6.0874   6.7728  10.7402  13.8524  13.9967  14.6777

     occupation numbers 
     1.0000   1.0000   1.0000   1.0000   1.0000   1.0000   1.0000   1.0000
     1.0000   1.0000   1.0000   0.0000   0.0000   0.0000   0.0000

          k =-0.2500 0.6667-0.0393 (   893 PWs)   bands (ev):

   -31.6049 -14.1024 -12.7732 -12.6784 -11.8197  -7.2320   2.2568   2.9492
     3.1458   6.1588   6.8933  11.0665  13.8799  13.9160  14.3206

     occupation numbers 
     1.0000   1.0000   1.0000   1.0000   1.0000   1.0000   1.0000   1.0000
     1.0000   1.0000   1.0000   0.0000   0.0000   0.0000   0.0000

          k =-0.7500 0.8333 0.2749 (   889 PWs)   bands (ev):

   -31.6299 -14.1103 -12.6911 -12.6645 -11.7579  -7.2424   2.1829   2.8730
     3.4424   6.6544   6.9716  10.5105  12.7126  13.7642  14.4110

     occupation numbers 
     1.0000   1.0000   1.0000   1.0000   1.0000   1.0000   1.0000   1.0000
     1.0000   1.0000   1.0000   0.0000   0.0000   0.0000   0.0000

          k =-0.2500 0.8333 0.0393 (   888 PWs)   bands (ev):

   -31.6276 -14.0724 -12.7583 -12.6761 -11.7581  -7.2921   2.3749   3.0118
     3.3159   6.7571   7.1044  10.8095  12.6098  13.7705  14.1358

     occupation numbers 
     1.0000   1.0000   1.0000   1.0000   1.0000   1.0000   1.0000   1.0000
     1.0000   1.0000   1.0000   0.0000   0.0000   0.0000   0.0000

          k =-0.7500 0.0000-0.1178 (   885 PWs)   bands (ev):

   -31.6400 -14.1073 -12.7622 -12.5177 -11.8029  -7.2973   2.3401   2.9915
     3.4555   6.8727   7.3023  10.5023  12.1096  13.8846  14.2454

     occupation numbers 
     1.0000   1.0000   1.0000   1.0000   1.0000   1.0000   1.0000   1.0000
     1.0000   1.0000   1.0000   0.0000   0.0000   0.0000   0.0000

          k = 0.0000 0.0000-0.4713 (   896 PWs)   bands (ev):

   -31.6635 -13.3000 -12.8991 -12.5623 -12.5623  -7.3165   2.7276   3.7443
     3.7443   7.3498   7.3498  10.2511  10.6671  13.5927  14.5203

     occupation numbers 
     1.0000   1.0000   1.0000   1.0000   1.0000   1.0000   1.0000   1.0000
     1.0000   1.0000   1.0000   0.0000   0.0000   0.0000   0.0000

     the Fermi energy is     9.3160 ev

!    total energy              =    -139.01022552 Ry
     Harris-Foulkes estimate   =    -139.01022437 Ry
     estimated scf accuracy    <       0.00000022 Ry

     The total energy is the sum of the following terms:

     one-electron contribution =     -41.18082219 Ry
     hartree contribution      =      31.53272570 Ry
     xc contribution           =     -25.92963301 Ry
     ewald contribution        =    -103.43249602 Ry
     smearing contrib. (-TS)   =      -0.00000000 Ry

     convergence has been achieved in   7 iterations

     negative rho (up, down):  1.994E-04 0.000E+00

     Forces acting on atoms (cartesian axes, Ry/au):

     atom    1 type  1   force =    -0.00000000    0.00000000    0.00000000
     atom    2 type  2   force =     0.00000000   -0.00000000   -0.00137084
     atom    3 type  2   force =     0.00000000    0.00000000    0.00137084
     The non-local contrib.  to forces
     atom    1 type  1   force =     0.00000000    0.00000000   -0.00000000
     atom    2 type  2   force =    -0.00000000    0.00000000    1.70823362
     atom    3 type  2   force =     0.00000000   -0.00000000   -1.70823362
     The ionic contribution  to forces
     atom    1 type  1   force =     0.00000000    0.00000000    0.00000000
     atom    2 type  2   force =    -0.00000000    0.00000000   -7.72632823
     atom    3 type  2   force =     0.00000000   -0.00000000    7.72632823
     The local contribution  to forces
     atom    1 type  1   force =     0.00000000   -0.00000000    0.00000000
     atom    2 type  2   force =     0.00000000   -0.00000000    6.01637116
     atom    3 type  2   force =     0.00000000   -0.00000000   -6.01637116
     The core correction contribution to forces
     atom    1 type  1   force =     0.00000000   -0.00000000   -0.00000000
     atom    2 type  2   force =     0.00000000    0.00000000    0.00000000
     atom    3 type  2   force =     0.00000000    0.00000000    0.00000000
     The Hubbard contrib.    to forces
     atom    1 type  1   force =     0.00000000    0.00000000    0.00000000
     atom    2 type  2   force =     0.00000000    0.00000000    0.00000000
     atom    3 type  2   force =     0.00000000    0.00000000    0.00000000
     The SCF correction term to forces
     atom    1 type  1   force =     0.00000000   -0.00000000    0.00000000
     atom    2 type  2   force =    -0.00000000    0.00000000    0.00035261
     atom    3 type  2   force =    -0.00000000    0.00000000   -0.00035261

     Total force =     0.001939     Total SCF correction =     0.000499
     SCF correction compared to forces is large: reduce conv_thr to get better values


     Computing stress (Cartesian axis) and pressure


     negative rho (up, down):  1.994E-04 0.000E+00
          total   stress  (Ry/bohr**3)                   (kbar)     P=   -6.38
  -0.00007264  -0.00000000  -0.00000000        -10.69     -0.00     -0.00
  -0.00000000  -0.00007264   0.00000000         -0.00    -10.69      0.00
  -0.00000000   0.00000000   0.00001507         -0.00      0.00      2.22

     kinetic stress (kbar)  15857.37      0.00      0.00
                                0.00  15857.37     -0.00
                                0.00     -0.00  14153.20

     local   stress (kbar) -11468.01     -0.00     -0.00
                               -0.00 -11468.01      0.00
                               -0.00      0.00  -2518.96

     nonloc. stress (kbar)  11864.57     -0.00     -0.00
                               -0.00  11864.57      0.00
                               -0.00      0.00  11061.62

     hartree stress (kbar)   7096.60      0.00      0.00
                                0.00   7096.60     -0.00
                                0.00     -0.00   3902.35

     exc-cor stress (kbar)  -3689.33      0.00     -0.00
                                0.00  -3689.33     -0.00
                               -0.00     -0.00  -3687.88

     corecor stress (kbar)   -965.00     -0.00      0.00
                               -0.00   -965.00     -0.00
                                0.00     -0.00   -965.54

     ewald   stress (kbar) -18706.88     -0.00      0.00
                               -0.00 -18706.88     -0.00
                                0.00     -0.00 -21942.59

     hubbard stress (kbar)      0.00      0.00      0.00
                                0.00      0.00      0.00
                                0.00      0.00      0.00

     london  stress (kbar)      0.00      0.00      0.00
                                0.00      0.00      0.00
                                0.00      0.00      0.00

     DFT-D3  stress (kbar)      0.00      0.00      0.00
                                0.00      0.00      0.00
                                0.00      0.00      0.00

     XDM     stress (kbar)      0.00      0.00      0.00
                                0.00      0.00      0.00
                                0.00      0.00      0.00

     dft-nl  stress (kbar)      0.00      0.00      0.00
                                0.00      0.00      0.00
                                0.00      0.00      0.00

     TS-vdW  stress (kbar)      0.00      0.00      0.00
                                0.00      0.00      0.00
                                0.00      0.00      0.00



     BFGS Geometry Optimization

     number of scf cycles    =   1
     number of bfgs steps    =   0

     enthalpy new            =    -139.0102255168 Ry

     new trust radius        =       0.0058151637 bohr
     new conv_thr            =       0.0000010000 Ry

     new unit-cell volume =    255.50666 a.u.^3 (    37.86218 Ang^3 )
     density =      3.16111 g/cm^3

CELL_PARAMETERS (alat=  6.22859403)
   0.499091985  -0.499091985   1.061233549
   0.499091985   0.499091985   1.061233549
  -0.499091985  -0.499091985   1.061233549

ATOMIC_POSITIONS (crystal)
Ca       0.000000000   0.500000000   0.500000000
O        0.000000000   0.891256267   0.891256267
O        0.000000000   0.108743733   0.108743733



     Writing output data file CaO2.save/
     Check: negative starting charge=   -0.000212
     NEW-OLD atomic charge density approx. for the potential

     Check: negative/imaginary core charge=   -0.000003    0.000000
     Check: negative starting charge=   -0.000213

     negative rho (up, down):  1.993E-04 0.000E+00
     extrapolated charge   21.92821, renormalised to   22.00000

     total cpu time spent up to now is       29.1 secs

     Self-consistent Calculation

     iteration #  1     ecut=    35.00 Ry     beta= 0.40
     Davidson diagonalization with overlap
     ethr =  1.00E-06,  avg # of iterations =  3.6

     negative rho (up, down):  1.978E-04 0.000E+00

     total cpu time spent up to now is       33.4 secs

     total energy              =    -139.00969565 Ry
     Harris-Foulkes estimate   =    -139.11138222 Ry
     estimated scf accuracy    <       0.00046041 Ry

     iteration #  2     ecut=    35.00 Ry     beta= 0.40
     Davidson diagonalization with overlap
     ethr =  2.09E-06,  avg # of iterations =  3.7

     negative rho (up, down):  1.979E-04 0.000E+00

     total cpu time spent up to now is       37.6 secs

     total energy              =    -139.01030641 Ry
     Harris-Foulkes estimate   =    -139.01049415 Ry
     estimated scf accuracy    <       0.00070950 Ry

     iteration #  3     ecut=    35.00 Ry     beta= 0.40
     Davidson diagonalization with overlap
     ethr =  2.09E-06,  avg # of iterations =  1.6

     negative rho (up, down):  1.986E-04 0.000E+00

     total cpu time spent up to now is       40.2 secs

     total energy              =    -139.01026560 Ry
     Harris-Foulkes estimate   =    -139.01033511 Ry
     estimated scf accuracy    <       0.00021701 Ry

     iteration #  4     ecut=    35.00 Ry     beta= 0.40
     Davidson diagonalization with overlap
     ethr =  9.86E-07,  avg # of iterations =  2.7

     negative rho (up, down):  1.991E-04 0.000E+00

     total cpu time spent up to now is       43.2 secs

     total energy              =    -139.01029306 Ry
     Harris-Foulkes estimate   =    -139.01029356 Ry
     estimated scf accuracy    <       0.00001973 Ry

     iteration #  5     ecut=    35.00 Ry     beta= 0.40
     Davidson diagonalization with overlap
     ethr =  8.97E-08,  avg # of iterations =  1.1

     negative rho (up, down):  1.997E-04 0.000E+00

     total cpu time spent up to now is       45.8 secs

     total energy              =    -139.01028448 Ry
     Harris-Foulkes estimate   =    -139.01029350 Ry
     estimated scf accuracy    <       0.00001971 Ry

     iteration #  6     ecut=    35.00 Ry     beta= 0.40
     Davidson diagonalization with overlap
     ethr =  8.96E-08,  avg # of iterations =  2.1

     negative rho (up, down):  1.995E-04 0.000E+00

     total cpu time spent up to now is       48.7 secs

     End of self-consistent calculation

          k = 0.0000 0.0000 0.0000 (   893 PWs)   bands (ev):

   -31.6233 -13.4282 -12.5935 -12.4921 -12.4921  -6.8868   1.0795   4.1604
     4.1604   6.4792   6.4792  11.1731  11.9076  13.1610  13.9427

     occupation numbers 
     1.0000   1.0000   1.0000   1.0000   1.0000   1.0000   1.0000   1.0000
     1.0000   1.0000   1.0000   0.0000   0.0000   0.0000   0.0000

          k =-0.2505 0.0000 0.1178 (   902 PWs)   bands (ev):

   -31.5939 -14.1196 -12.5849 -12.4557 -11.7715  -7.0735   1.5234   3.1945
     3.6621   6.4470   6.8566  11.2035  12.3893  14.0048  14.5625

     occupation numbers 
     1.0000   1.0000   1.0000   1.0000   1.0000   1.0000   1.0000   1.0000
     1.0000   1.0000   1.0000   0.0000   0.0000   0.0000   0.0000

          k = 0.5009 0.0000-0.2356 (   898 PWs)   bands (ev):

   -31.5641 -14.5350 -12.5760 -12.4188 -11.3150  -7.2597   2.1028   2.2641
     3.2246   6.5498   7.2692  10.5728  13.1736  13.9327  14.3741

     occupation numbers 
     1.0000   1.0000   1.0000   1.0000   1.0000   1.0000   1.0000   1.0000
     1.0000   1.0000   1.0000   0.0000   0.0000   0.0000   0.0000

          k = 0.0000 0.1670 0.0785 (   900 PWs)   bands (ev):

   -31.6086 -13.8440 -12.5887 -12.4740 -12.0638  -6.9804   1.2987   3.6517
     3.9018   6.4494   6.6652  11.5184  11.7578  14.0054  14.1632

     occupation numbers 
     1.0000   1.0000   1.0000   1.0000   1.0000   1.0000   1.0000   1.0000
     1.0000   1.0000   1.0000   0.0000   0.0000   0.0000   0.0000

          k =-0.2505 0.1670 0.1963 (   894 PWs)   bands (ev):

   -31.5798 -14.0905 -12.6173 -12.5929 -11.7054  -7.1569   1.8961   2.9548
     3.5993   6.3901   7.0091  10.7253  12.8371  13.8472  14.4717

     occupation numbers 
     1.0000   1.0000   1.0000   1.0000   1.0000   1.0000   1.0000   1.0000
     1.0000   1.0000   1.0000   0.0000   0.0000   0.0000   0.0000

          k = 0.5009 0.1670-0.1570 (   897 PWs)   bands (ev):

   -31.5531 -14.3546 -12.5661 -12.5403 -11.5692  -7.2056   2.0073   2.6263
     3.2589   6.2425   6.9341  10.8065  13.6857  14.2793  14.5493

     occupation numbers 
     1.0000   1.0000   1.0000   1.0000   1.0000   1.0000   1.0000   1.0000
     1.0000   1.0000   1.0000   0.0000   0.0000   0.0000   0.0000

          k = 0.2505 0.1670-0.0393 (   906 PWs)   bands (ev):

   -31.5822 -14.1026 -12.6053 -12.5552 -11.7312  -7.0244   1.3721   3.0574
     3.8084   5.9402   6.9613  11.6644  12.9395  13.9314  14.2515

     occupation numbers 
     1.0000   1.0000   1.0000   1.0000   1.0000   1.0000   1.0000   1.0000
     1.0000   1.0000   1.0000   0.0000   0.0000   0.0000   0.0000

          k = 0.0000 0.3339 0.1570 (   902 PWs)   bands (ev):

   -31.5790 -14.3424 -12.5808 -12.4373 -11.5296  -7.1665   1.7614   2.7653
     3.4373   6.4776   7.0567  10.8964  13.1037  13.6010  14.6376

     occupation numbers 
     1.0000   1.0000   1.0000   1.0000   1.0000   1.0000   1.0000   1.0000
     1.0000   1.0000   1.0000   0.0000   0.0000   0.0000   0.0000

          k =-0.2505 0.3339 0.2748 (   898 PWs)   bands (ev):

   -31.5539 -14.0939 -12.7166 -12.5834 -11.7530  -7.1961   2.2244   2.8059
     3.3131   6.4176   6.6146  10.6450  13.9042  14.0050  14.7404

     occupation numbers 
     1.0000   1.0000   1.0000   1.0000   1.0000   1.0000   1.0000   1.0000
     1.0000   1.0000   1.0000   0.0000   0.0000   0.0000   0.0000

          k = 0.5009 0.3339-0.0785 (   901 PWs)   bands (ev):

   -31.5310 -13.8475 -12.7748 -12.5469 -12.2194  -7.0978   2.0835   2.9686
     3.4430   5.4278   6.6888  11.2115  14.5155  14.7153  14.8365

     occupation numbers 
     1.0000   1.0000   1.0000   1.0000   1.0000   1.0000   1.0000   1.0000
     1.0000   1.0000   1.0000   0.0000   0.0000   0.0000   0.0000

          k = 0.2505 0.3339 0.0393 (   903 PWs)   bands (ev):

   -31.5563 -14.1121 -12.7007 -12.5395 -11.7811  -7.0635   1.5692   2.8938
     3.6941   5.5765   6.9963  11.5576  13.9692  14.1099  14.2687

     occupation numbers 
     1.0000   1.0000   1.0000   1.0000   1.0000   1.0000   1.0000   1.0000
     1.0000   1.0000   1.0000   0.0000   0.0000   0.0000   0.0000

          k =-0.2505-0.5009-0.1178 (   897 PWs)   bands (ev):

   -31.5421 -14.1368 -12.6589 -12.5561 -11.8596  -7.1516   2.0246   2.8565
     3.3105   5.8448   6.7761  11.0157  14.1458  14.6120  14.7123

     occupation numbers 
     1.0000   1.0000   1.0000   1.0000   1.0000   1.0000   1.0000   1.0000
     1.0000   1.0000   1.0000   0.0000   0.0000   0.0000   0.0000

          k = 0.5009-0.5009-0.4711 (   888 PWs)   bands (ev):

   -31.5199 -13.2556 -12.9057 -12.8706 -12.5298  -7.0438   2.1816   2.9589
     3.6779   5.0043   6.6295  11.3994  14.5452  14.6495  15.0037

     occupation numbers 
     1.0000   1.0000   1.0000   1.0000   1.0000   1.0000   1.0000   1.0000
     1.0000   1.0000   1.0000   0.0000   0.0000   0.0000   0.0000

          k = 0.1670-0.1670 0.0000 (   904 PWs)   bands (ev):

   -31.5958 -13.9715 -12.5879 -12.5646 -11.8562  -6.9770   1.2563   3.2957
     3.9477   6.0697   6.8515  11.8031  12.3442  13.8805  14.1219

     occupation numbers 
     1.0000   1.0000   1.0000   1.0000   1.0000   1.0000   1.0000   1.0000
     1.0000   1.0000   1.0000   0.0000   0.0000   0.0000   0.0000

          k =-0.0835-0.1670 0.1178 (   899 PWs)   bands (ev):

   -31.6044 -13.8740 -12.5970 -12.5253 -11.9809  -7.0286   1.4548   3.4883
     3.8920   6.4205   6.8153  11.2330  11.8698  14.0194  14.2601

     occupation numbers 
     1.0000   1.0000   1.0000   1.0000   1.0000   1.0000   1.0000   1.0000
     1.0000   1.0000   1.0000   0.0000   0.0000   0.0000   0.0000

          k = 0.6679-0.1670-0.2356 (   892 PWs)   bands (ev):

   -31.5661 -14.2207 -12.6031 -12.5776 -11.6188  -7.2044   2.0913   2.7166
     3.3975   6.4401   6.9431  10.6141  13.5125  13.7061  14.7332

     occupation numbers 
     1.0000   1.0000   1.0000   1.0000   1.0000   1.0000   1.0000   1.0000
     1.0000   1.0000   1.0000   0.0000   0.0000   0.0000   0.0000

          k = 0.4174-0.1670-0.1178 (   902 PWs)   bands (ev):

   -31.5575 -14.3240 -12.5599 -12.5488 -11.5904  -7.1574   1.7745   2.7434
     3.3758   6.0419   7.0091  11.0746  13.7081  14.0895  14.6427

     occupation numbers 
     1.0000   1.0000   1.0000   1.0000   1.0000   1.0000   1.0000   1.0000
     1.0000   1.0000   1.0000   0.0000   0.0000   0.0000   0.0000

          k =-0.0835 0.0000 0.1963 (   902 PWs)   bands (ev):

   -31.6157 -13.5526 -12.6483 -12.4934 -12.3297  -7.0977   1.7811   3.8597
     3.9420   6.8029   6.8548  10.6845  11.1551  13.6106  14.6117

     occupation numbers 
     1.0000   1.0000   1.0000   1.0000   1.0000   1.0000   1.0000   1.0000
     1.0000   1.0000   1.0000   0.0000   0.0000   0.0000   0.0000

          k = 0.6679 0.0000-0.1570 (   887 PWs)   bands (ev):

   -31.5763 -14.3197 -12.6458 -12.4418 -11.5120  -7.2683   2.2021   2.6748
     3.3582   6.7089   7.2985  10.5653  12.9948  13.5267  14.5810

     occupation numbers 
     1.0000   1.0000   1.0000   1.0000   1.0000   1.0000   1.0000   1.0000
     1.0000   1.0000   1.0000   0.0000   0.0000   0.0000   0.0000

          k = 0.4174 0.0000-0.0393 (   903 PWs)   bands (ev):

   -31.5691 -14.4856 -12.5655 -12.4221 -11.3891  -7.1568   1.5366   2.7270
     3.3127   6.2841   7.1086  11.4888  13.4481  13.6218  14.3040

     occupation numbers 
     1.0000   1.0000   1.0000   1.0000   1.0000   1.0000   1.0000   1.0000
     1.0000   1.0000   1.0000   0.0000   0.0000   0.0000   0.0000

          k = 0.1670 0.1670 0.1570 (   891 PWs)   bands (ev):

   -31.5938 -13.9629 -12.5992 -12.5935 -11.8346  -7.0928   1.6682   3.2224
     3.7926   6.3792   6.9626  10.9491  12.2508  14.0457  14.2129

     occupation numbers 
     1.0000   1.0000   1.0000   1.0000   1.0000   1.0000   1.0000   1.0000
     1.0000   1.0000   1.0000   0.0000   0.0000   0.0000   0.0000

          k =-0.0835 0.1670 0.2748 (   893 PWs)   bands (ev):

   -31.6000 -13.8379 -12.6905 -12.5342 -11.9562  -7.2144   2.2135   3.3419
     3.6940   6.8940   7.1059  10.4164  11.6770  14.0887  14.3152

     occupation numbers 
     1.0000   1.0000   1.0000   1.0000   1.0000   1.0000   1.0000   1.0000
     1.0000   1.0000   1.0000   0.0000   0.0000   0.0000   0.0000

          k = 0.6679 0.1670-0.0785 (   896 PWs)   bands (ev):

   -31.5641 -14.1913 -12.6509 -12.5968 -11.6179  -7.2493   2.2422   2.8715
     3.2764   6.5109   7.0585  10.8851  13.4203  13.7295  14.3770

     occupation numbers 
     1.0000   1.0000   1.0000   1.0000   1.0000   1.0000   1.0000   1.0000
     1.0000   1.0000   1.0000   0.0000   0.0000   0.0000   0.0000

          k = 0.4174 0.1670 0.0393 (   895 PWs)   bands (ev):

   -31.5578 -14.3227 -12.5549 -12.5504 -11.5990  -7.1254   1.6242   2.8163
     3.4266   5.8748   7.0578  11.4778  13.7799  13.9571  14.4366

     occupation numbers 
     1.0000   1.0000   1.0000   1.0000   1.0000   1.0000   1.0000   1.0000
     1.0000   1.0000   1.0000   0.0000   0.0000   0.0000   0.0000

          k =-0.0835-0.6679-0.1178 (   887 PWs)   bands (ev):

   -31.5727 -14.2823 -12.6565 -12.4862 -11.5367  -7.2695   2.2027   2.7705
     3.3328   6.6751   7.2437  10.6933  13.0908  13.5762  14.4766

     occupation numbers 
     1.0000   1.0000   1.0000   1.0000   1.0000   1.0000   1.0000   1.0000
     1.0000   1.0000   1.0000   0.0000   0.0000   0.0000   0.0000

          k = 0.6679-0.6679-0.4711 (   886 PWs)   bands (ev):

   -31.5414 -13.9411 -12.8081 -12.5977 -11.9452  -7.1676   2.2944   3.0797
     3.1461   5.8056   6.8126  11.1986  14.2493  14.4157  14.5481

     occupation numbers 
     1.0000   1.0000   1.0000   1.0000   1.0000   1.0000   1.0000   1.0000
     1.0000   1.0000   1.0000   0.0000   0.0000   0.0000   0.0000

          k = 0.4174-0.6679-0.3534 (   894 PWs)   bands (ev):

   -31.5346 -13.8905 -12.7888 -12.5385 -12.1287  -7.0937   1.9792   2.9385
     3.5029   5.5180   6.6743  11.0961  14.3991  14.7567  14.8498

     occupation numbers 
     1.0000   1.0000   1.0000   1.0000   1.0000   1.0000   1.0000   1.0000
     1.0000   1.0000   1.0000   0.0000   0.0000   0.0000   0.0000

          k =-0.0835-0.5009-0.0393 (   897 PWs)   bands (ev):

   -31.5612 -14.4815 -12.5852 -12.4517 -11.3922  -7.2061   1.6987   2.7218
     3.2428   6.2589   7.2043  11.3401  13.4362  13.8115  14.4109

     occupation numbers 
     1.0000   1.0000   1.0000   1.0000   1.0000   1.0000   1.0000   1.0000
     1.0000   1.0000   1.0000   0.0000   0.0000   0.0000   0.0000

          k = 0.4174-0.5009-0.2748 (   904 PWs)   bands (ev):

   -31.5229 -13.5276 -12.8581 -12.6654 -12.4510  -7.0927   2.2652   3.1149
     3.2826   5.7507   6.1429  10.8242  14.6361  14.8735  14.9733

     occupation numbers 
     1.0000   1.0000   1.0000   1.0000   1.0000   1.0000   1.0000   1.0000
     1.0000   1.0000   1.0000   0.0000   0.0000   0.0000   0.0000

          k = 0.1670-0.3339-0.0785 (   900 PWs)   bands (ev):

   -31.5681 -14.2323 -12.5844 -12.5510 -11.6422  -7.0907   1.5533   2.8752
     3.5882   5.9292   7.0212  11.3893  13.5674  13.8292  14.4481

     occupation numbers 
     1.0000   1.0000   1.0000   1.0000   1.0000   1.0000   1.0000   1.0000
     1.0000   1.0000   1.0000   0.0000   0.0000   0.0000   0.0000

          k =-0.0835-0.3339 0.0393 (   905 PWs)   bands (ev):

   -31.5771 -14.3160 -12.5569 -12.4774 -11.5707  -7.0820   1.4401   2.9120
     3.5244   6.1403   6.9823  11.5981  13.2270  13.8192  14.1829

     occupation numbers 
     1.0000   1.0000   1.0000   1.0000   1.0000   1.0000   1.0000   1.0000
     1.0000   1.0000   1.0000   0.0000   0.0000   0.0000   0.0000

          k = 0.6679-0.3339-0.3141 (   902 PWs)   bands (ev):

   -31.5434 -13.9838 -12.7850 -12.5420 -11.9433  -7.1155   1.9430   2.8995
     3.4895   5.7651   6.7073  10.9281  14.1522  14.6530  14.7338

     occupation numbers 
     1.0000   1.0000   1.0000   1.0000   1.0000   1.0000   1.0000   1.0000
     1.0000   1.0000   1.0000   0.0000   0.0000   0.0000   0.0000

          k = 0.4174-0.3339-0.1963 (   900 PWs)   bands (ev):

   -31.5343 -13.8905 -12.7946 -12.5451 -12.1135  -7.1249   2.1377   2.9522
     3.3407   5.8752   6.4112  10.7971  14.3941  14.7851  14.9432

     occupation numbers 
     1.0000   1.0000   1.0000   1.0000   1.0000   1.0000   1.0000   1.0000
     1.0000   1.0000   1.0000   0.0000   0.0000   0.0000   0.0000

          k = 0.3339-0.3339 0.0000 (   906 PWs)   bands (ev):

   -31.5441 -13.9846 -12.7772 -12.5325 -11.9637  -7.0552   1.6809   2.9099
     3.7230   5.3361   6.9275  11.5727  14.1404  14.3104  14.6801

     occupation numbers 
     1.0000   1.0000   1.0000   1.0000   1.0000   1.0000   1.0000   1.0000
     1.0000   1.0000   1.0000   0.0000   0.0000   0.0000   0.0000

          k = 0.0835-0.3339 0.1178 (   897 PWs)   bands (ev):

   -31.5764 -14.3148 -12.5675 -12.4784 -11.5601  -7.1288   1.6263   2.8343
     3.4843   6.2797   7.0225  11.1440  13.2340  13.6787  14.6581

     occupation numbers 
     1.0000   1.0000   1.0000   1.0000   1.0000   1.0000   1.0000   1.0000
     1.0000   1.0000   1.0000   0.0000   0.0000   0.0000   0.0000

          k = 0.5844-0.3339-0.1178 (   896 PWs)   bands (ev):

   -31.5337 -13.8715 -12.8066 -12.5608 -12.1205  -7.1355   2.2452   3.0316
     3.2225   5.7403   6.5660  10.9787  14.4320  14.7583  14.9629

     occupation numbers 
     1.0000   1.0000   1.0000   1.0000   1.0000   1.0000   1.0000   1.0000
     1.0000   1.0000   1.0000   0.0000   0.0000   0.0000   0.0000

          k = 0.0835-0.1670 0.1963 (   896 PWs)   bands (ev):

   -31.6023 -13.8618 -12.6362 -12.5293 -11.9653  -7.1271   1.8269   3.4097
     3.7916   6.6523   6.9598  10.7109  11.7784  14.0604  14.3321

     occupation numbers 
     1.0000   1.0000   1.0000   1.0000   1.0000   1.0000   1.0000   1.0000
     1.0000   1.0000   1.0000   0.0000   0.0000   0.0000   0.0000

          k = 0.8348-0.1670-0.1570 (   893 PWs)   bands (ev):

   -31.5898 -13.9205 -12.6951 -12.6047 -11.8158  -7.2461   2.3584   3.1416
     3.5619   6.9283   7.0690  10.4469  12.0739  14.0136  14.2301

     occupation numbers 
     1.0000   1.0000   1.0000   1.0000   1.0000   1.0000   1.0000   1.0000
     1.0000   1.0000   1.0000   0.0000   0.0000   0.0000   0.0000

          k = 0.5844-0.1670-0.0393 (   893 PWs)   bands (ev):

   -31.5554 -14.2996 -12.6108 -12.5600 -11.5839  -7.2181   2.0054   2.8434
     3.2335   6.1999   7.0846  11.1747  13.7505  13.9657  14.3351

     occupation numbers 
     1.0000   1.0000   1.0000   1.0000   1.0000   1.0000   1.0000   1.0000
     1.0000   1.0000   1.0000   0.0000   0.0000   0.0000   0.0000

          k = 0.0835 0.0000 0.2748 (   889 PWs)   bands (ev):

   -31.6130 -13.5210 -12.7070 -12.4979 -12.3283  -7.1978   2.2122   3.7679
     3.8529   7.0245   7.0774  10.3373  11.0383  13.6952  14.6366

     occupation numbers 
     1.0000   1.0000   1.0000   1.0000   1.0000   1.0000   1.0000   1.0000
     1.0000   1.0000   1.0000   0.0000   0.0000   0.0000   0.0000

          k = 0.8348 0.0000-0.0785 (   885 PWs)   bands (ev):

   -31.6006 -13.7581 -12.7823 -12.4875 -12.0328  -7.2856   2.5689   3.3938
     3.6396   7.1115   7.3509  10.4091  11.4039  13.9867  14.4517

     occupation numbers 
     1.0000   1.0000   1.0000   1.0000   1.0000   1.0000   1.0000   1.0000
     1.0000   1.0000   1.0000   0.0000   0.0000   0.0000   0.0000

          k = 0.5844 0.0000 0.0393 (   895 PWs)   bands (ev):

   -31.5664 -14.4637 -12.6313 -12.4266 -11.3699  -7.2601   1.8469   2.7665
     3.2356   6.5030   7.3555  11.1483  13.3231  13.5870  14.1645

     occupation numbers 
     1.0000   1.0000   1.0000   1.0000   1.0000   1.0000   1.0000   1.0000
     1.0000   1.0000   1.0000   0.0000   0.0000   0.0000   0.0000

          k = 0.0835-0.8348-0.1178 (   891 PWs)   bands (ev):

   -31.5980 -13.8068 -12.7481 -12.5386 -11.9552  -7.2691   2.4838   3.3256
     3.6208   7.0629   7.2278  10.3984  11.5925  14.0637  14.2917

     occupation numbers 
     1.0000   1.0000   1.0000   1.0000   1.0000   1.0000   1.0000   1.0000
     1.0000   1.0000   1.0000   0.0000   0.0000   0.0000   0.0000

          k = 0.8348-0.8348-0.4711 (   884 PWs)   bands (ev):

   -31.5878 -13.8832 -12.7608 -12.6103 -11.8172  -7.2875   2.5411   3.2237
     3.4706   7.0405   7.1851  10.6696  11.9900  14.0181  14.0552

     occupation numbers 
     1.0000   1.0000   1.0000   1.0000   1.0000   1.0000   1.0000   1.0000
     1.0000   1.0000   1.0000   0.0000   0.0000   0.0000   0.0000

          k = 0.5844-0.8348-0.3534 (   897 PWs)   bands (ev):

   -31.5557 -14.3073 -12.5985 -12.5578 -11.5795  -7.2247   2.0911   2.7203
     3.2426   6.3204   6.9875  10.8743  13.6999  14.0386  14.6114

     occupation numbers 
     1.0000   1.0000   1.0000   1.0000   1.0000   1.0000   1.0000   1.0000
     1.0000   1.0000   1.0000   0.0000   0.0000   0.0000   0.0000

          k = 0.3339-0.6679-0.1570 (   898 PWs)   bands (ev):

   -31.5421 -13.9625 -12.8004 -12.5733 -11.9350  -7.1711   2.2897   2.9665
     3.1904   6.1559   6.4803  10.7777  14.1679  14.5818  14.7662

     occupation numbers 
     1.0000   1.0000   1.0000   1.0000   1.0000   1.0000   1.0000   1.0000
     1.0000   1.0000   1.0000   0.0000   0.0000   0.0000   0.0000

          k = 0.0835-0.6679-0.0393 (   896 PWs)   bands (ev):

   -31.5721 -14.2711 -12.6794 -12.4879 -11.5386  -7.2756   2.1456   2.9071
     3.3116   6.6450   7.3094  10.9404  13.0589  13.5942  14.1355

     occupation numbers 
     1.0000   1.0000   1.0000   1.0000   1.0000   1.0000   1.0000   1.0000
     1.0000   1.0000   1.0000   0.0000   0.0000   0.0000   0.0000

          k = 0.5844-0.6679-0.2748 (   896 PWs)   bands (ev):

   -31.5340 -13.8836 -12.8011 -12.5528 -12.1108  -7.1401   2.2437   2.9967
     3.2211   6.0583   6.2675  10.7582  14.4052  14.7946  14.9580

     occupation numbers 
     1.0000   1.0000   1.0000   1.0000   1.0000   1.0000   1.0000   1.0000
     1.0000   1.0000   1.0000   0.0000   0.0000   0.0000   0.0000

          k =-0.7514 0.6679 0.1963 (   895 PWs)   bands (ev):

   -31.5549 -14.1060 -12.7100 -12.5603 -11.7585  -7.1566   1.9882   2.8258
     3.4408   6.1052   6.7942  10.7532  13.9055  14.0523  14.7417

     occupation numbers 
     1.0000   1.0000   1.0000   1.0000   1.0000   1.0000   1.0000   1.0000
     1.0000   1.0000   1.0000   0.0000   0.0000   0.0000   0.0000

          k =-0.2505 0.6679-0.0393 (   893 PWs)   bands (ev):

   -31.5526 -14.0656 -12.7247 -12.6285 -11.7590  -7.2125   2.2943   2.9867
     3.1866   6.1796   6.9101  11.0703  13.9362  13.9716  14.3692

     occupation numbers 
     1.0000   1.0000   1.0000   1.0000   1.0000   1.0000   1.0000   1.0000
     1.0000   1.0000   1.0000   0.0000   0.0000   0.0000   0.0000

          k =-0.7514 0.8348 0.2748 (   889 PWs)   bands (ev):

   -31.5781 -14.0729 -12.6420 -12.6144 -11.6962  -7.2223   2.2181   2.9092
     3.4843   6.6740   6.9953  10.5234  12.7610  13.8166  14.4715

     occupation numbers 
     1.0000   1.0000   1.0000   1.0000   1.0000   1.0000   1.0000   1.0000
     1.0000   1.0000   1.0000   0.0000   0.0000   0.0000   0.0000

          k =-0.2505 0.8348 0.0393 (   888 PWs)   bands (ev):

   -31.5758 -14.0349 -12.7101 -12.6259 -11.6962  -7.2721   2.4121   3.0496
     3.3575   6.7793   7.1242  10.8144  12.6590  13.8232  14.1856

     occupation numbers 
     1.0000   1.0000   1.0000   1.0000   1.0000   1.0000   1.0000   1.0000
     1.0000   1.0000   1.0000   0.0000   0.0000   0.0000   0.0000

          k =-0.7514 0.0000-0.1178 (   885 PWs)   bands (ev):

   -31.5885 -14.0701 -12.7145 -12.4647 -11.7420  -7.2770   2.3761   3.0305
     3.4961   6.8939   7.3259  10.5121  12.1552  13.9370  14.2968

     occupation numbers 
     1.0000   1.0000   1.0000   1.0000   1.0000   1.0000   1.0000   1.0000
     1.0000   1.0000   1.0000   0.0000   0.0000   0.0000   0.0000

          k = 0.0000 0.0000-0.4711 (   896 PWs)   bands (ev):

   -31.6126 -13.2533 -12.8540 -12.5102 -12.5102  -7.2941   2.7671   3.7890
     3.7890   7.3718   7.3718  10.2551  10.7037  13.6559  14.5776

     occupation numbers 
     1.0000   1.0000   1.0000   1.0000   1.0000   1.0000   1.0000   1.0000
     1.0000   1.0000   1.0000   0.0000   0.0000   0.0000   0.0000

     the Fermi energy is     9.3794 ev

!    total energy              =    -139.01028732 Ry
     Harris-Foulkes estimate   =    -139.01028750 Ry
     estimated scf accuracy    <       0.00000023 Ry

     The total energy is the sum of the following terms:

     one-electron contribution =     -40.98634203 Ry
     hartree contribution      =      31.46538389 Ry
     xc contribution           =     -25.93164321 Ry
     ewald contribution        =    -103.55768598 Ry
     smearing contrib. (-TS)   =      -0.00000000 Ry

     convergence has been achieved in   6 iterations

     negative rho (up, down):  1.995E-04 0.000E+00

     Forces acting on atoms (cartesian axes, Ry/au):

     atom    1 type  1   force =     0.00000000    0.00000000    0.00000000
     atom    2 type  2   force =     0.00000000    0.00000000    0.00036911
     atom    3 type  2   force =    -0.00000000    0.00000000   -0.00036911
     The non-local contrib.  to forces
     atom    1 type  1   force =     0.00000000    0.00000000    0.00000000
     atom    2 type  2   force =    -0.00000000    0.00000000    1.70389527
     atom    3 type  2   force =    -0.00000000    0.00000000   -1.70389527
     The ionic contribution  to forces
     atom    1 type  1   force =     0.00000000    0.00000000    0.00000000
     atom    2 type  2   force =    -0.00000000    0.00000000   -7.72396418
     atom    3 type  2   force =     0.00000000   -0.00000000    7.72396418
     The local contribution  to forces
     atom    1 type  1   force =     0.00000000    0.00000000   -0.00000000
     atom    2 type  2   force =    -0.00000000   -0.00000000    6.02013531
     atom    3 type  2   force =     0.00000000   -0.00000000   -6.02013531
     The core correction contribution to forces
     atom    1 type  1   force =     0.00000000   -0.00000000   -0.00000000
     atom    2 type  2   force =     0.00000000    0.00000000    0.00000000
     atom    3 type  2   force =     0.00000000    0.00000000    0.00000000
     The Hubbard contrib.    to forces
     atom    1 type  1   force =     0.00000000    0.00000000    0.00000000
     atom    2 type  2   force =     0.00000000    0.00000000    0.00000000
     atom    3 type  2   force =     0.00000000    0.00000000    0.00000000
     The SCF correction term to forces
     atom    1 type  1   force =     0.00000000   -0.00000000    0.00000000
     atom    2 type  2   force =     0.00000000   -0.00000000    0.00030271
     atom    3 type  2   force =    -0.00000000   -0.00000000   -0.00030271

     Total force =     0.000522     Total SCF correction =     0.000428
     SCF correction compared to forces is large: reduce conv_thr to get better values


     Computing stress (Cartesian axis) and pressure


     negative rho (up, down):  1.995E-04 0.000E+00
          total   stress  (Ry/bohr**3)                   (kbar)     P=   -5.35
  -0.00005442  -0.00000000  -0.00000000         -8.01     -0.00     -0.00
  -0.00000000  -0.00005442   0.00000000         -0.00     -8.01      0.00
  -0.00000000   0.00000000  -0.00000035         -0.00      0.00     -0.05

     kinetic stress (kbar)  15911.81     -0.00      0.00
                               -0.00  15911.81     -0.00
                               -0.00     -0.00  14198.91

     local   stress (kbar) -11532.35     -0.00      0.00
                               -0.00 -11532.35      0.00
                                0.00      0.00  -2363.08

     nonloc. stress (kbar)  11903.16     -0.00     -0.00
                               -0.00  11903.16      0.00
                               -0.00      0.00  11097.78

     hartree stress (kbar)   7128.74      0.00     -0.00
                                0.00   7128.74     -0.00
                               -0.00     -0.00   3858.35

     exc-cor stress (kbar)  -3701.54      0.00     -0.00
                                0.00  -3701.54     -0.00
                               -0.00     -0.00  -3700.41

     corecor stress (kbar)   -968.18     -0.00      0.00
                               -0.00   -968.18     -0.00
                                0.00     -0.00   -968.72

     ewald   stress (kbar) -18749.64      0.00     -0.00
                                0.00 -18749.64      0.00
                               -0.00      0.00 -22122.89

     hubbard stress (kbar)      0.00      0.00      0.00
                                0.00      0.00      0.00
                                0.00      0.00      0.00

     london  stress (kbar)      0.00      0.00      0.00
                                0.00      0.00      0.00
                                0.00      0.00      0.00

     DFT-D3  stress (kbar)      0.00      0.00      0.00
                                0.00      0.00      0.00
                                0.00      0.00      0.00

     XDM     stress (kbar)      0.00      0.00      0.00
                                0.00      0.00      0.00
                                0.00      0.00      0.00

     dft-nl  stress (kbar)      0.00      0.00      0.00
                                0.00      0.00      0.00
                                0.00      0.00      0.00

     TS-vdW  stress (kbar)      0.00      0.00      0.00
                                0.00      0.00      0.00
                                0.00      0.00      0.00



     number of scf cycles    =   2
     number of bfgs steps    =   1
[...]
     1.0000   1.0000   1.0000   0.0000   0.0000   0.0000   0.0000

          k = 0.4191 0.1676 0.0389 (   892 PWs)   bands (ev):

   -31.5445 -14.3651 -12.5437 -12.5395 -11.5747  -7.1662   1.6161   2.7839
     3.3955   5.8483   7.0088  11.4329  13.7602  13.9441  14.4224

     occupation numbers 
     1.0000   1.0000   1.0000   1.0000   1.0000   1.0000   1.0000   1.0000
     1.0000   1.0000   1.0000   0.0000   0.0000   0.0000   0.0000

          k =-0.0838-0.6705-0.1168 (   891 PWs)   bands (ev):

   -31.5606 -14.3239 -12.6452 -12.4720 -11.5120  -7.3048   2.1893   2.7332
     3.3118   6.6238   7.1995  10.6498  13.1047  13.5817  14.4356

     occupation numbers 
     1.0000   1.0000   1.0000   1.0000   1.0000   1.0000   1.0000   1.0000
     1.0000   1.0000   1.0000   0.0000   0.0000   0.0000   0.0000

          k = 0.6705-0.6705-0.4671 (   882 PWs)   bands (ev):

   -31.5276 -13.9782 -12.8051 -12.5831 -11.9297  -7.2048   2.2901   3.0771
     3.1046   5.7812   6.7243  11.1428  14.2630  14.3744  14.5816

     occupation numbers 
     1.0000   1.0000   1.0000   1.0000   1.0000   1.0000   1.0000   1.0000
     1.0000   1.0000   1.0000   0.0000   0.0000   0.0000   0.0000

          k = 0.4191-0.6705-0.3503 (   895 PWs)   bands (ev):

   -31.5203 -13.9236 -12.7876 -12.5251 -12.1203  -7.1292   1.9675   2.9231
     3.4811   5.4805   6.6010  11.0693  14.4046  14.7823  14.8249

     occupation numbers 
     1.0000   1.0000   1.0000   1.0000   1.0000   1.0000   1.0000   1.0000
     1.0000   1.0000   1.0000   0.0000   0.0000   0.0000   0.0000

          k =-0.0838-0.5029-0.0389 (   894 PWs)   bands (ev):

   -31.5482 -14.5276 -12.5728 -12.4362 -11.3633  -7.2472   1.6890   2.6830
     3.2126   6.2211   7.1669  11.2889  13.4349  13.7785  14.3992

     occupation numbers 
     1.0000   1.0000   1.0000   1.0000   1.0000   1.0000   1.0000   1.0000
     1.0000   1.0000   1.0000   0.0000   0.0000   0.0000   0.0000

          k = 0.4191-0.5029-0.2725 (   902 PWs)   bands (ev):

   -31.5080 -13.5529 -12.8586 -12.6572 -12.4506  -7.1243   2.2489   3.1067
     3.2699   5.6944   6.0704  10.8122  14.6773  14.8995  15.0108

     occupation numbers 
     1.0000   1.0000   1.0000   1.0000   1.0000   1.0000   1.0000   1.0000
     1.0000   1.0000   1.0000   0.0000   0.0000   0.0000   0.0000

          k = 0.1676-0.3352-0.0778 (   900 PWs)   bands (ev):

   -31.5553 -14.2717 -12.5752 -12.5423 -11.6177  -7.1300   1.5422   2.8425
     3.5602   5.9024   6.9804  11.3541  13.5633  13.8272  14.3859

     occupation numbers 
     1.0000   1.0000   1.0000   1.0000   1.0000   1.0000   1.0000   1.0000
     1.0000   1.0000   1.0000   0.0000   0.0000   0.0000   0.0000

          k =-0.0838-0.3352 0.0389 (   904 PWs)   bands (ev):

   -31.5647 -14.3573 -12.5489 -12.4637 -11.5441  -7.1231   1.4319   2.8734
     3.4937   6.1143   6.9553  11.5574  13.2165  13.8054  14.1266

     occupation numbers 
     1.0000   1.0000   1.0000   1.0000   1.0000   1.0000   1.0000   1.0000
     1.0000   1.0000   1.0000   0.0000   0.0000   0.0000   0.0000

          k = 0.6705-0.3352-0.3114 (   896 PWs)   bands (ev):

   -31.5295 -14.0178 -12.7835 -12.5303 -11.9295  -7.1500   1.9263   2.8783
     3.4723   5.7212   6.6466  10.9084  14.1660  14.6795  14.7753

     occupation numbers 
     1.0000   1.0000   1.0000   1.0000   1.0000   1.0000   1.0000   1.0000
     1.0000   1.0000   1.0000   0.0000   0.0000   0.0000   0.0000

          k = 0.4191-0.3352-0.1946 (   898 PWs)   bands (ev):

   -31.5200 -13.9228 -12.7930 -12.5315 -12.1071  -7.1578   2.1199   2.9345
     3.3268   5.8214   6.3485  10.7830  14.4140  14.8236  14.9780

     occupation numbers 
     1.0000   1.0000   1.0000   1.0000   1.0000   1.0000   1.0000   1.0000
     1.0000   1.0000   1.0000   0.0000   0.0000   0.0000   0.0000

          k = 0.3352-0.3352 0.0000 (   902 PWs)   bands (ev):

   -31.5302 -14.0199 -12.7763 -12.5207 -11.9470  -7.0944   1.6737   2.8908
     3.6933   5.3134   6.8584  11.5287  14.0722  14.3341  14.7233

     occupation numbers 
     1.0000   1.0000   1.0000   1.0000   1.0000   1.0000   1.0000   1.0000
     1.0000   1.0000   1.0000   0.0000   0.0000   0.0000   0.0000

          k = 0.0838-0.3352 0.1168 (   901 PWs)   bands (ev):

   -31.5640 -14.3555 -12.5597 -12.4647 -11.5347  -7.1668   1.6119   2.7975
     3.4563   6.2469   6.9932  11.1142  13.2324  13.6735  14.6148

     occupation numbers 
     1.0000   1.0000   1.0000   1.0000   1.0000   1.0000   1.0000   1.0000
     1.0000   1.0000   1.0000   0.0000   0.0000   0.0000   0.0000

          k = 0.5867-0.3352-0.1168 (   892 PWs)   bands (ev):

   -31.5194 -13.9054 -12.8043 -12.5466 -12.1125  -7.1703   2.2344   3.0181
     3.2002   5.7047   6.4842  10.9481  14.4427  14.7596  14.9755

     occupation numbers 
     1.0000   1.0000   1.0000   1.0000   1.0000   1.0000   1.0000   1.0000
     1.0000   1.0000   1.0000   0.0000   0.0000   0.0000   0.0000

          k = 0.0838-0.1676 0.1946 (   895 PWs)   bands (ev):

   -31.5914 -13.8913 -12.6330 -12.5176 -11.9485  -7.1582   1.8010   3.3861
     3.7761   6.6145   6.9268  10.6894  11.7636  14.1109  14.3207

     occupation numbers 
     1.0000   1.0000   1.0000   1.0000   1.0000   1.0000   1.0000   1.0000
     1.0000   1.0000   1.0000   0.0000   0.0000   0.0000   0.0000

          k = 0.8381-0.1676-0.1557 (   887 PWs)   bands (ev):

   -31.5786 -13.9534 -12.6875 -12.5949 -11.7955  -7.2770   2.3348   3.1137
     3.5542   6.8687   7.0284  10.4101  12.0738  14.0298  14.2433

     occupation numbers 
     1.0000   1.0000   1.0000   1.0000   1.0000   1.0000   1.0000   1.0000
     1.0000   1.0000   1.0000   0.0000   0.0000   0.0000   0.0000

          k = 0.5867-0.1676-0.0389 (   893 PWs)   bands (ev):

   -31.5423 -14.3428 -12.5973 -12.5485 -11.5602  -7.2570   1.9986   2.8070
     3.2107   6.1650   7.0234  11.1196  13.7555  13.9600  14.3150

     occupation numbers 
     1.0000   1.0000   1.0000   1.0000   1.0000   1.0000   1.0000   1.0000
     1.0000   1.0000   1.0000   0.0000   0.0000   0.0000   0.0000

          k = 0.0838-0.0000 0.2725 (   891 PWs)   bands (ev):

   -31.6030 -13.5435 -12.7063 -12.4843 -12.3179  -7.2254   2.1810   3.7577
     3.8436   6.9780   7.0319  10.3063  11.0207  13.7408  14.9754

     occupation numbers 
     1.0000   1.0000   1.0000   1.0000   1.0000   1.0000   1.0000   1.0000
     1.0000   1.0000   1.0000   0.0000   0.0000   0.0000   0.0000

          k = 0.8381-0.0000-0.0778 (   880 PWs)   bands (ev):

   -31.5901 -13.7906 -12.7730 -12.4729 -12.0170  -7.3166   2.5511   3.3761
     3.6291   7.0537   7.2966  10.3444  11.3998  13.9934  14.4713

     occupation numbers 
     1.0000   1.0000   1.0000   1.0000   1.0000   1.0000   1.0000   1.0000
     1.0000   1.0000   1.0000   0.0000   0.0000   0.0000   0.0000

          k = 0.5867-0.0000 0.0389 (   892 PWs)   bands (ev):

   -31.5539 -14.5098 -12.6184 -12.4099 -11.3405  -7.2999   1.8353   2.7292
     3.2077   6.4551   7.3197  11.0899  13.3240  13.5901  14.1230

     occupation numbers 
     1.0000   1.0000   1.0000   1.0000   1.0000   1.0000   1.0000   1.0000
     1.0000   1.0000   1.0000   0.0000   0.0000   0.0000   0.0000

          k = 0.0838-0.8381-0.1168 (   884 PWs)   bands (ev):

   -31.5873 -13.8387 -12.7401 -12.5262 -11.9377  -7.2996   2.4620   3.3040
     3.6123   7.0068   7.1775  10.3474  11.5889  14.0792  14.3052

     occupation numbers 
     1.0000   1.0000   1.0000   1.0000   1.0000   1.0000   1.0000   1.0000
     1.0000   1.0000   1.0000   0.0000   0.0000   0.0000   0.0000

          k = 0.8381-0.8381-0.4671 (   880 PWs)   bands (ev):

   -31.5767 -13.9194 -12.7488 -12.6001 -11.7955  -7.3211   2.5309   3.1910
     3.4659   6.9975   7.1139  10.5960  11.9947  14.0313  14.0472

     occupation numbers 
     1.0000   1.0000   1.0000   1.0000   1.0000   1.0000   1.0000   1.0000
     1.0000   1.0000   1.0000   0.0000   0.0000   0.0000   0.0000

          k = 0.5867-0.8381-0.3503 (   893 PWs)   bands (ev):

   -31.5426 -14.3495 -12.5860 -12.5465 -11.5567  -7.2615   2.0798   2.6835
     3.2212   6.2787   6.9329  10.8375  13.7045  14.0552  14.6124

     occupation numbers 
     1.0000   1.0000   1.0000   1.0000   1.0000   1.0000   1.0000   1.0000
     1.0000   1.0000   1.0000   0.0000   0.0000   0.0000   0.0000

          k = 0.3352-0.6705-0.1557 (   896 PWs)   bands (ev):

   -31.5283 -13.9973 -12.7979 -12.5606 -11.9216  -7.2048   2.2734   2.9360
     3.1843   6.1168   6.4054  10.7532  14.1812  14.6130  14.7826

     occupation numbers 
     1.0000   1.0000   1.0000   1.0000   1.0000   1.0000   1.0000   1.0000
     1.0000   1.0000   1.0000   0.0000   0.0000   0.0000   0.0000

          k = 0.0838-0.6705-0.0389 (   894 PWs)   bands (ev):

   -31.5600 -14.3138 -12.6665 -12.4735 -11.5130  -7.3129   2.1368   2.8705
     3.2912   6.5952   7.2605  10.8770  13.0745  13.6003  14.0925

     occupation numbers 
     1.0000   1.0000   1.0000   1.0000   1.0000   1.0000   1.0000   1.0000
     1.0000   1.0000   1.0000   0.0000   0.0000   0.0000   0.0000

          k = 0.5867-0.6705-0.2725 (   895 PWs)   bands (ev):

   -31.5197 -13.9162 -12.7991 -12.5391 -12.1046  -7.1727   2.2256   2.9763
     3.2106   6.0071   6.2002  10.7428  14.4236  14.8283  14.9951

     occupation numbers 
     1.0000   1.0000   1.0000   1.0000   1.0000   1.0000   1.0000   1.0000
     1.0000   1.0000   1.0000   0.0000   0.0000   0.0000   0.0000

          k =-0.7543 0.6705 0.1946 (   893 PWs)   bands (ev):

   -31.5416 -14.1421 -12.7052 -12.5502 -11.7398  -7.1904   1.9672   2.7985
     3.4249   6.0564   6.7458  10.7357  13.9158  14.0712  14.7719

     occupation numbers 
     1.0000   1.0000   1.0000   1.0000   1.0000   1.0000   1.0000   1.0000
     1.0000   1.0000   1.0000   0.0000   0.0000   0.0000   0.0000

          k =-0.2514 0.6705-0.0389 (   890 PWs)   bands (ev):

   -31.5394 -14.1047 -12.7190 -12.6147 -11.7386  -7.2494   2.2891   2.9480
     3.1763   6.1511   6.8296  11.0137  13.9596  13.9815  14.3329

     occupation numbers 
     1.0000   1.0000   1.0000   1.0000   1.0000   1.0000   1.0000   1.0000
     1.0000   1.0000   1.0000   0.0000   0.0000   0.0000   0.0000

          k =-0.7543 0.8381 0.2725 (   890 PWs)   bands (ev):

   -31.5662 -14.1084 -12.6334 -12.6060 -11.6744  -7.2542   2.1939   2.8782
     3.4723   6.6182   6.9566  10.4976  12.7669  13.8256  14.4879

     occupation numbers 
     1.0000   1.0000   1.0000   1.0000   1.0000   1.0000   1.0000   1.0000
     1.0000   1.0000   1.0000   0.0000   0.0000   0.0000   0.0000

          k =-0.2514 0.8381 0.0389 (   882 PWs)   bands (ev):

   -31.5640 -14.0734 -12.6976 -12.6165 -11.6727  -7.3072   2.4038   3.0115
     3.3496   6.7369   7.0572  10.7489  12.6712  13.8319  14.1630

     occupation numbers 
     1.0000   1.0000   1.0000   1.0000   1.0000   1.0000   1.0000   1.0000
     1.0000   1.0000   1.0000   0.0000   0.0000   0.0000   0.0000

          k =-0.7543 0.0000-0.1168 (   886 PWs)   bands (ev):

   -31.5773 -14.1073 -12.7049 -12.4494 -11.7217  -7.3097   2.3594   3.0017
     3.4788   6.8395   7.2792  10.4635  12.1587  13.9476  14.2796

     occupation numbers 
     1.0000   1.0000   1.0000   1.0000   1.0000   1.0000   1.0000   1.0000
     1.0000   1.0000   1.0000   0.0000   0.0000   0.0000   0.0000

          k =-0.0000 0.0000-0.4671 (   880 PWs)   bands (ev):

   -31.6030 -13.2846 -12.8442 -12.4962 -12.4962  -7.3235   2.7461   3.7861
     3.7861   7.3108   7.3108  10.1721  10.6927  13.6811  14.5989

     occupation numbers 
     1.0000   1.0000   1.0000   1.0000   1.0000   1.0000   1.0000   1.0000
     1.0000   1.0000   1.0000   0.0000   0.0000   0.0000   0.0000

     the Fermi energy is     9.4063 ev

!    total energy              =    -139.01028775 Ry
     Harris-Foulkes estimate   =    -139.01028731 Ry
     estimated scf accuracy    <          5.5E-09 Ry

     The total energy is the sum of the following terms:

     one-electron contribution =     -41.48471150 Ry
     hartree contribution      =      31.70650056 Ry
     xc contribution           =     -25.93700598 Ry
     ewald contribution        =    -103.29507083 Ry
     smearing contrib. (-TS)   =      -0.00000000 Ry

     convergence has been achieved in   8 iterations

     negative rho (up, down):  2.023E-04 0.000E+00

     Forces acting on atoms (cartesian axes, Ry/au):

     atom    1 type  1   force =     0.00000000    0.00000000    0.00000000
     atom    2 type  2   force =     0.00000000   -0.00000000    0.00010175
     atom    3 type  2   force =    -0.00000000    0.00000000   -0.00010175
     The non-local contrib.  to forces
     atom    1 type  1   force =     0.00000000    0.00000000    0.00000000
     atom    2 type  2   force =     0.00000000   -0.00000000    1.70308552
     atom    3 type  2   force =    -0.00000000    0.00000000   -1.70308552
     The ionic contribution  to forces
     atom    1 type  1   force =     0.00000000   -0.00000000    0.00000000
     atom    2 type  2   force =    -0.00000000    0.00000000   -7.89459913
     atom    3 type  2   force =     0.00000000   -0.00000000    7.89459913
     The local contribution  to forces
     atom    1 type  1   force =    -0.00000000   -0.00000000    0.00000000
     atom    2 type  2   force =     0.00000000   -0.00000000    6.19151161
     atom    3 type  2   force =    -0.00000000    0.00000000   -6.19151161
     The core correction contribution to forces
     atom    1 type  1   force =     0.00000000   -0.00000000   -0.00000000
     atom    2 type  2   force =     0.00000000    0.00000000    0.00000000
     atom    3 type  2   force =     0.00000000    0.00000000    0.00000000
     The Hubbard contrib.    to forces
     atom    1 type  1   force =     0.00000000    0.00000000    0.00000000
     atom    2 type  2   force =     0.00000000    0.00000000    0.00000000
     atom    3 type  2   force =     0.00000000    0.00000000    0.00000000
     The SCF correction term to forces
     atom    1 type  1   force =    -0.00000000    0.00000000   -0.00000000
     atom    2 type  2   force =    -0.00000000    0.00000000    0.00010376
     atom    3 type  2   force =    -0.00000000   -0.00000000   -0.00010376

     Total force =     0.000144     Total SCF correction =     0.000147
     SCF correction compared to forces is large: reduce conv_thr to get better values


     Computing stress (Cartesian axis) and pressure


     negative rho (up, down):  2.023E-04 0.000E+00
          total   stress  (Ry/bohr**3)                   (kbar)     P=    0.18
   0.00000422   0.00000000  -0.00000000          0.62      0.00     -0.00
  -0.00000000   0.00000422   0.00000000         -0.00      0.62      0.00
  -0.00000000   0.00000000  -0.00000477         -0.00      0.00     -0.70

     kinetic stress (kbar)  15901.81      0.00      0.00
                                0.00  15901.81     -0.00
                                0.00     -0.00  14191.44

     local   stress (kbar) -12103.35     -0.00      0.00
                               -0.00 -12103.35     -0.00
                                0.00     -0.00  -1489.84

     nonloc. stress (kbar)  11895.06      0.00      0.00
                                0.00  11895.06     -0.00
                                0.00     -0.00  11089.00

     hartree stress (kbar)   7355.07      0.00     -0.00
                                0.00   7355.07      0.00
                               -0.00      0.00   3527.76

     exc-cor stress (kbar)  -3698.64     -0.00     -0.00
                               -0.00  -3698.64      0.00
                               -0.00      0.00  -3698.83

     corecor stress (kbar)   -967.33     -0.00      0.00
                               -0.00   -967.33     -0.00
                                0.00     -0.00   -967.85

     ewald   stress (kbar) -18382.01      0.00     -0.00
                                0.00 -18382.01      0.00
                               -0.00      0.00 -22652.37

     hubbard stress (kbar)      0.00      0.00      0.00
                                0.00      0.00      0.00
                                0.00      0.00      0.00

     london  stress (kbar)      0.00      0.00      0.00
                                0.00      0.00      0.00
                                0.00      0.00      0.00

     DFT-D3  stress (kbar)      0.00      0.00      0.00
                                0.00      0.00      0.00
                                0.00      0.00      0.00

     XDM     stress (kbar)      0.00      0.00      0.00
                                0.00      0.00      0.00
                                0.00      0.00      0.00

     dft-nl  stress (kbar)      0.00      0.00      0.00
                                0.00      0.00      0.00
                                0.00      0.00      0.00

     TS-vdW  stress (kbar)      0.00      0.00      0.00
                                0.00      0.00      0.00
                                0.00      0.00      0.00



     Writing output data file CaO2.save/
 
     init_run     :      4.79s CPU      4.93s WALL (       2 calls)
     electrons    :    252.99s CPU    257.11s WALL (      11 calls)
     update_pot   :     12.29s CPU     12.32s WALL (       9 calls)
     forces       :      8.87s CPU      9.04s WALL (      11 calls)
     stress       :     18.88s CPU     19.43s WALL (      11 calls)

     Called by init_run:
     wfcinit      :      2.17s CPU      2.20s WALL (       2 calls)
     wfcinit:atom :      0.03s CPU      0.03s WALL (     108 calls)
     wfcinit:wfcr :      2.03s CPU      2.06s WALL (     108 calls)
     potinit      :      0.49s CPU      0.50s WALL (       2 calls)
     hinit0       :      1.99s CPU      2.00s WALL (       2 calls)

     Called by electrons:
     c_bands      :    203.86s CPU    205.54s WALL (      80 calls)
     sum_band     :     40.94s CPU     42.21s WALL (      80 calls)
     v_of_rho     :      3.94s CPU      3.98s WALL (      88 calls)
     v_h          :      0.16s CPU      0.16s WALL (      88 calls)
     v_xc         :      4.71s CPU      4.76s WALL (     110 calls)
     newd         :      4.83s CPU      6.05s WALL (      88 calls)
     mix_rho      :      0.29s CPU      0.30s WALL (      80 calls)

     Called by c_bands:
     init_us_2    :      3.90s CPU      3.92s WALL (    9936 calls)
     cegterg      :    195.26s CPU    196.60s WALL (    4320 calls)

     Called by sum_band:
     sum_band:bec :      0.08s CPU      0.08s WALL (    4320 calls)
     addusdens    :      5.32s CPU      6.39s WALL (      80 calls)

     Called by *egterg:
     h_psi        :    174.40s CPU    175.51s WALL (   16350 calls)
     s_psi        :      3.35s CPU      3.38s WALL (   16350 calls)
     g_psi        :      0.73s CPU      0.74s WALL (   11922 calls)
     cdiaghg      :      6.68s CPU      6.71s WALL (   15594 calls)
     cegterg:over :      4.64s CPU      4.66s WALL (   11922 calls)
     cegterg:upda :      3.34s CPU      3.37s WALL (   11922 calls)
     cegterg:last :      1.45s CPU      1.46s WALL (    4390 calls)

     Called by h_psi:
     h_psi:pot    :    174.02s CPU    175.09s WALL (   16350 calls)
     h_psi:calbec :      3.70s CPU      3.74s WALL (   16350 calls)
     vloc_psi     :    166.70s CPU    167.68s WALL (   16350 calls)
     add_vuspsi   :      3.51s CPU      3.54s WALL (   16350 calls)

     General routines
     calbec       :      5.71s CPU      5.75s WALL (   23640 calls)
     fft          :      2.02s CPU      2.03s WALL (    1420 calls)
     ffts         :      0.06s CPU      0.06s WALL (     168 calls)
     fftw         :    182.77s CPU    183.50s WALL (  412398 calls)
     interpolate  :      0.18s CPU      0.18s WALL (      88 calls)
 
 
     PWSCF        :  4m58.93s CPU     5m 4.31s WALL

 
   This run was terminated on:  18: 7:15   1Apr2021            

=------------------------------------------------------------------------------=
   JOB DONE.
=------------------------------------------------------------------------------=
