
     Program PWSCF v.6.4.1 starts on 13Mar2020 at  6: 1:31 

     This program is part of the open-source Quantum ESPRESSO suite
     for quantum simulation of materials; please cite
         "P. Giannozzi et al., J. Phys.:Condens. Matter 21 395502 (2009);
         "P. Giannozzi et al., J. Phys.:Condens. Matter 29 465901 (2017);
          URL http://www.quantum-espresso.org", 
     in publications or presentations arising from this work. More details at
     http://www.quantum-espresso.org/quote

     Parallel version (MPI), running on     8 processors

     MPI processes distributed on     1 nodes
     R & G space division:  proc/nbgrp/npool/nimage =       8
     Waiting for input...
     Reading input from standard input

     Current dimensions of program PWSCF are:
     Max number of different atomic species (ntypx) = 10
     Max number of k-points (npk) =  40000
     Max angular momentum in pseudopotentials (lmaxx) =  3

     Subspace diagonalization in iterative solution of the eigenvalue problem:
     a serial algorithm will be used

 
     Parallelization info
     --------------------
     sticks:   dense  smooth     PW     G-vecs:    dense   smooth      PW
     Min         111      49     15                 2196      650     117
     Max         112      50     16                 2198      652     121
     Sum         889     397    121                17573     5209     941
 


     bravais-lattice index     =            2
     lattice parameter (alat)  =       9.0858  a.u.
     unit-cell volume          =     187.5124 (a.u.)^3
     number of atoms/cell      =            2
     number of atomic types    =            2
     number of electrons       =        16.00
     number of Kohn-Sham states=           12
     kinetic-energy cutoff     =      35.0000  Ry
     charge density cutoff     =     315.0000  Ry
     convergence threshold     =      1.0E-06
     mixing beta               =       0.4000
     number of iterations used =            8  plain     mixing
     Exchange-correlation      = SLA PW PBE PBE ( 1  4  3  4 0 0)
     nstep                     =          100


     celldm(1)=   9.085803  celldm(2)=   0.000000  celldm(3)=   0.000000
     celldm(4)=   0.000000  celldm(5)=   0.000000  celldm(6)=   0.000000

     crystal axes: (cart. coord. in units of alat)
               a(1) = (  -0.500000   0.000000   0.500000 )  
               a(2) = (   0.000000   0.500000   0.500000 )  
               a(3) = (  -0.500000   0.500000   0.000000 )  

     reciprocal axes: (cart. coord. in units 2 pi/alat)
               b(1) = ( -1.000000 -1.000000  1.000000 )  
               b(2) = (  1.000000  1.000000  1.000000 )  
               b(3) = ( -1.000000  1.000000 -1.000000 )  


     PseudoPot. # 1 for Ca read from file:
     ../pseudo/Ca.pbe-nsp-van.UPF
     MD5 check sum: cdab9c70410076c6adf7f3c9fd3601e0
     Pseudo is Ultrasoft + core correction, Zval = 10.0
     Generated by new atomic code, or converted to UPF format
     Using radial grid of  845 points,  6 beta functions with: 
                l(1) =   0
                l(2) =   0
                l(3) =   1
                l(4) =   1
                l(5) =   2
                l(6) =   2
     Q(r) pseudized with  6 coefficients,  rinner =    1.200   1.200   1.200
                                                       1.200   1.200

     PseudoPot. # 2 for O  read from file:
     ../pseudo/O.pbe-van_ak.UPF
     MD5 check sum: 572909515f9aa9498032b6eb5528d5f9
     Pseudo is Ultrasoft, Zval =  6.0
     Generated by new atomic code, or converted to UPF format
     Using radial grid of  737 points,  4 beta functions with: 
                l(1) =   0
                l(2) =   0
                l(3) =   1
                l(4) =   1
     Q(r) pseudized with  8 coefficients,  rinner =    0.800   0.800   0.800


     atomic species   valence    mass     pseudopotential
        Ca            10.00    40.07800     Ca( 1.00)
        O              6.00    15.99940     O ( 1.00)

     48 Sym. Ops., with inversion, found


                                    s                        frac. trans.

      isym =  1     identity                                     

 cryst.   s( 1) = (     1          0          0      )
                  (     0          1          0      )
                  (     0          0          1      )

 cart.    s( 1) = (  1.0000000  0.0000000  0.0000000 )
                  (  0.0000000  1.0000000  0.0000000 )
                  (  0.0000000  0.0000000  1.0000000 )


      isym =  2     180 deg rotation - cart. axis [0,0,1]        

 cryst.   s( 2) = (     0          1         -1      )
                  (     1          0         -1      )
                  (     0          0         -1      )

 cart.    s( 2) = ( -1.0000000  0.0000000  0.0000000 )
                  (  0.0000000 -1.0000000  0.0000000 )
                  (  0.0000000  0.0000000  1.0000000 )


      isym =  3     180 deg rotation - cart. axis [0,1,0]        

 cryst.   s( 3) = (    -1          0          0      )
                  (    -1          0          1      )
                  (    -1          1          0      )

 cart.    s( 3) = ( -1.0000000  0.0000000  0.0000000 )
                  (  0.0000000  1.0000000  0.0000000 )
                  (  0.0000000  0.0000000 -1.0000000 )


      isym =  4     180 deg rotation - cart. axis [1,0,0]        

 cryst.   s( 4) = (     0         -1          1      )
                  (     0         -1          0      )
                  (     1         -1          0      )

 cart.    s( 4) = (  1.0000000  0.0000000  0.0000000 )
                  (  0.0000000 -1.0000000  0.0000000 )
                  (  0.0000000  0.0000000 -1.0000000 )


      isym =  5     180 deg rotation - cart. axis [1,1,0]        

 cryst.   s( 5) = (     0         -1          0      )
                  (    -1          0          0      )
                  (     0          0         -1      )

 cart.    s( 5) = (  0.0000000  1.0000000  0.0000000 )
                  (  1.0000000  0.0000000  0.0000000 )
                  (  0.0000000  0.0000000 -1.0000000 )


      isym =  6     180 deg rotation - cart. axis [1,-1,0]       

 cryst.   s( 6) = (    -1          0          1      )
                  (     0         -1          1      )
                  (     0          0          1      )

 cart.    s( 6) = (  0.0000000 -1.0000000  0.0000000 )
                  ( -1.0000000  0.0000000  0.0000000 )
                  (  0.0000000  0.0000000 -1.0000000 )


      isym =  7      90 deg rotation - cart. axis [0,0,-1]       

 cryst.   s( 7) = (     0          1          0      )
                  (     0          1         -1      )
                  (    -1          1          0      )

 cart.    s( 7) = (  0.0000000  1.0000000  0.0000000 )
                  ( -1.0000000  0.0000000  0.0000000 )
                  (  0.0000000  0.0000000  1.0000000 )


      isym =  8      90 deg rotation - cart. axis [0,0,1]        

 cryst.   s( 8) = (     1          0         -1      )
                  (     1          0          0      )
                  (     1         -1          0      )

 cart.    s( 8) = (  0.0000000 -1.0000000  0.0000000 )
                  (  1.0000000  0.0000000  0.0000000 )
                  (  0.0000000  0.0000000  1.0000000 )


      isym =  9     180 deg rotation - cart. axis [1,0,1]        

 cryst.   s( 9) = (    -1          0          0      )
                  (     0          0         -1      )
                  (     0         -1          0      )

 cart.    s( 9) = (  0.0000000  0.0000000  1.0000000 )
                  (  0.0000000 -1.0000000  0.0000000 )
                  (  1.0000000  0.0000000  0.0000000 )


      isym = 10     180 deg rotation - cart. axis [-1,0,1]       

 cryst.   s(10) = (     1          0          0      )
                  (     1         -1          0      )
                  (     1          0         -1      )

 cart.    s(10) = (  0.0000000  0.0000000 -1.0000000 )
                  (  0.0000000 -1.0000000  0.0000000 )
                  ( -1.0000000  0.0000000  0.0000000 )


      isym = 11      90 deg rotation - cart. axis [0,1,0]        

 cryst.   s(11) = (     0          1         -1      )
                  (    -1          1          0      )
                  (     0          1          0      )

 cart.    s(11) = (  0.0000000  0.0000000  1.0000000 )
                  (  0.0000000  1.0000000  0.0000000 )
                  ( -1.0000000  0.0000000  0.0000000 )


      isym = 12      90 deg rotation - cart. axis [0,-1,0]       

 cryst.   s(12) = (     0         -1          1      )
                  (     0          0          1      )
                  (    -1          0          1      )

 cart.    s(12) = (  0.0000000  0.0000000 -1.0000000 )
                  (  0.0000000  1.0000000  0.0000000 )
                  (  1.0000000  0.0000000  0.0000000 )


      isym = 13     180 deg rotation - cart. axis [0,1,1]        

 cryst.   s(13) = (    -1          1          0      )
                  (     0          1          0      )
                  (     0          1         -1      )

 cart.    s(13) = ( -1.0000000  0.0000000  0.0000000 )
                  (  0.0000000  0.0000000  1.0000000 )
                  (  0.0000000  1.0000000  0.0000000 )


      isym = 14     180 deg rotation - cart. axis [0,1,-1]       

 cryst.   s(14) = (     0          0         -1      )
                  (     0         -1          0      )
                  (    -1          0          0      )

 cart.    s(14) = ( -1.0000000  0.0000000  0.0000000 )
                  (  0.0000000  0.0000000 -1.0000000 )
                  (  0.0000000 -1.0000000  0.0000000 )


      isym = 15      90 deg rotation - cart. axis [-1,0,0]       

 cryst.   s(15) = (     0          0          1      )
                  (    -1          0          1      )
                  (     0         -1          1      )

 cart.    s(15) = (  1.0000000  0.0000000  0.0000000 )
                  (  0.0000000  0.0000000  1.0000000 )
                  (  0.0000000 -1.0000000  0.0000000 )


      isym = 16      90 deg rotation - cart. axis [1,0,0]        

 cryst.   s(16) = (     1         -1          0      )
                  (     1          0         -1      )
                  (     1          0          0      )

 cart.    s(16) = (  1.0000000  0.0000000  0.0000000 )
                  (  0.0000000  0.0000000 -1.0000000 )
                  (  0.0000000  1.0000000  0.0000000 )


      isym = 17     120 deg rotation - cart. axis [-1,-1,-1]     

 cryst.   s(17) = (    -1          0          1      )
                  (    -1          1          0      )
                  (    -1          0          0      )

 cart.    s(17) = (  0.0000000  1.0000000  0.0000000 )
                  (  0.0000000  0.0000000  1.0000000 )
                  (  1.0000000  0.0000000  0.0000000 )


      isym = 18     120 deg rotation - cart. axis [-1,1,1]       

 cryst.   s(18) = (     0          1          0      )
                  (     0          0          1      )
                  (     1          0          0      )

 cart.    s(18) = (  0.0000000 -1.0000000  0.0000000 )
                  (  0.0000000  0.0000000  1.0000000 )
                  ( -1.0000000  0.0000000  0.0000000 )


      isym = 19     120 deg rotation - cart. axis [1,1,-1]       

 cryst.   s(19) = (     1          0         -1      )
                  (     0          0         -1      )
                  (     0          1         -1      )

 cart.    s(19) = (  0.0000000  1.0000000  0.0000000 )
                  (  0.0000000  0.0000000 -1.0000000 )
                  ( -1.0000000  0.0000000  0.0000000 )


      isym = 20     120 deg rotation - cart. axis [1,-1,1]       

 cryst.   s(20) = (     0         -1          0      )
                  (     1         -1          0      )
                  (     0         -1          1      )

 cart.    s(20) = (  0.0000000 -1.0000000  0.0000000 )
                  (  0.0000000  0.0000000 -1.0000000 )
                  (  1.0000000  0.0000000  0.0000000 )


      isym = 21     120 deg rotation - cart. axis [1,1,1]        

 cryst.   s(21) = (     0          0         -1      )
                  (     0          1         -1      )
                  (     1          0         -1      )

 cart.    s(21) = (  0.0000000  0.0000000  1.0000000 )
                  (  1.0000000  0.0000000  0.0000000 )
                  (  0.0000000  1.0000000  0.0000000 )


      isym = 22     120 deg rotation - cart. axis [-1,1,-1]      

 cryst.   s(22) = (    -1          1          0      )
                  (    -1          0          0      )
                  (    -1          0          1      )

 cart.    s(22) = (  0.0000000  0.0000000  1.0000000 )
                  ( -1.0000000  0.0000000  0.0000000 )
                  (  0.0000000 -1.0000000  0.0000000 )


      isym = 23     120 deg rotation - cart. axis [1,-1,-1]      

 cryst.   s(23) = (     0          0          1      )
                  (     1          0          0      )
                  (     0          1          0      )

 cart.    s(23) = (  0.0000000  0.0000000 -1.0000000 )
                  ( -1.0000000  0.0000000  0.0000000 )
                  (  0.0000000  1.0000000  0.0000000 )


      isym = 24     120 deg rotation - cart. axis [-1,-1,1]      

 cryst.   s(24) = (     1         -1          0      )
                  (     0         -1          1      )
                  (     0         -1          0      )

 cart.    s(24) = (  0.0000000  0.0000000 -1.0000000 )
                  (  1.0000000  0.0000000  0.0000000 )
                  (  0.0000000 -1.0000000  0.0000000 )


      isym = 25     inversion                                    

 cryst.   s(25) = (    -1          0          0      )
                  (     0         -1          0      )
                  (     0          0         -1      )

 cart.    s(25) = ( -1.0000000  0.0000000  0.0000000 )
                  (  0.0000000 -1.0000000  0.0000000 )
                  (  0.0000000  0.0000000 -1.0000000 )


      isym = 26     inv. 180 deg rotation - cart. axis [0,0,1]   

 cryst.   s(26) = (     0         -1          1      )
                  (    -1          0          1      )
                  (     0          0          1      )

 cart.    s(26) = (  1.0000000  0.0000000  0.0000000 )
                  (  0.0000000  1.0000000  0.0000000 )
                  (  0.0000000  0.0000000 -1.0000000 )


      isym = 27     inv. 180 deg rotation - cart. axis [0,1,0]   

 cryst.   s(27) = (     1          0          0      )
                  (     1          0         -1      )
                  (     1         -1          0      )

 cart.    s(27) = (  1.0000000  0.0000000  0.0000000 )
                  (  0.0000000 -1.0000000  0.0000000 )
                  (  0.0000000  0.0000000  1.0000000 )


      isym = 28     inv. 180 deg rotation - cart. axis [1,0,0]   

 cryst.   s(28) = (     0          1         -1      )
                  (     0          1          0      )
                  (    -1          1          0      )

 cart.    s(28) = ( -1.0000000  0.0000000  0.0000000 )
                  (  0.0000000  1.0000000  0.0000000 )
                  (  0.0000000  0.0000000  1.0000000 )


      isym = 29     inv. 180 deg rotation - cart. axis [1,1,0]   

 cryst.   s(29) = (     0          1          0      )
                  (     1          0          0      )
                  (     0          0          1      )

 cart.    s(29) = (  0.0000000 -1.0000000  0.0000000 )
                  ( -1.0000000  0.0000000  0.0000000 )
                  (  0.0000000  0.0000000  1.0000000 )


      isym = 30     inv. 180 deg rotation - cart. axis [1,-1,0]  

 cryst.   s(30) = (     1          0         -1      )
                  (     0          1         -1      )
                  (     0          0         -1      )

 cart.    s(30) = (  0.0000000  1.0000000  0.0000000 )
                  (  1.0000000  0.0000000  0.0000000 )
                  (  0.0000000  0.0000000  1.0000000 )


      isym = 31     inv.  90 deg rotation - cart. axis [0,0,-1]  

 cryst.   s(31) = (     0         -1          0      )
                  (     0         -1          1      )
                  (     1         -1          0      )

 cart.    s(31) = (  0.0000000 -1.0000000  0.0000000 )
                  (  1.0000000  0.0000000  0.0000000 )
                  (  0.0000000  0.0000000 -1.0000000 )


      isym = 32     inv.  90 deg rotation - cart. axis [0,0,1]   

 cryst.   s(32) = (    -1          0          1      )
                  (    -1          0          0      )
                  (    -1          1          0      )

 cart.    s(32) = (  0.0000000  1.0000000  0.0000000 )
                  ( -1.0000000  0.0000000  0.0000000 )
                  (  0.0000000  0.0000000 -1.0000000 )


      isym = 33     inv. 180 deg rotation - cart. axis [1,0,1]   

 cryst.   s(33) = (     1          0          0      )
                  (     0          0          1      )
                  (     0          1          0      )

 cart.    s(33) = (  0.0000000  0.0000000 -1.0000000 )
                  (  0.0000000  1.0000000  0.0000000 )
                  ( -1.0000000  0.0000000  0.0000000 )


      isym = 34     inv. 180 deg rotation - cart. axis [-1,0,1]  

 cryst.   s(34) = (    -1          0          0      )
                  (    -1          1          0      )
                  (    -1          0          1      )

 cart.    s(34) = (  0.0000000  0.0000000  1.0000000 )
                  (  0.0000000  1.0000000  0.0000000 )
                  (  1.0000000  0.0000000  0.0000000 )


      isym = 35     inv.  90 deg rotation - cart. axis [0,1,0]   

 cryst.   s(35) = (     0         -1          1      )
                  (     1         -1          0      )
                  (     0         -1          0      )

 cart.    s(35) = (  0.0000000  0.0000000 -1.0000000 )
                  (  0.0000000 -1.0000000  0.0000000 )
                  (  1.0000000  0.0000000  0.0000000 )


      isym = 36     inv.  90 deg rotation - cart. axis [0,-1,0]  

 cryst.   s(36) = (     0          1         -1      )
                  (     0          0         -1      )
                  (     1          0         -1      )

 cart.    s(36) = (  0.0000000  0.0000000  1.0000000 )
                  (  0.0000000 -1.0000000  0.0000000 )
                  ( -1.0000000  0.0000000  0.0000000 )


      isym = 37     inv. 180 deg rotation - cart. axis [0,1,1]   

 cryst.   s(37) = (     1         -1          0      )
                  (     0         -1          0      )
                  (     0         -1          1      )

 cart.    s(37) = (  1.0000000  0.0000000  0.0000000 )
                  (  0.0000000  0.0000000 -1.0000000 )
                  (  0.0000000 -1.0000000  0.0000000 )


      isym = 38     inv. 180 deg rotation - cart. axis [0,1,-1]  

 cryst.   s(38) = (     0          0          1      )
                  (     0          1          0      )
                  (     1          0          0      )

 cart.    s(38) = (  1.0000000  0.0000000  0.0000000 )
                  (  0.0000000  0.0000000  1.0000000 )
                  (  0.0000000  1.0000000  0.0000000 )


      isym = 39     inv.  90 deg rotation - cart. axis [-1,0,0]  

 cryst.   s(39) = (     0          0         -1      )
                  (     1          0         -1      )
                  (     0          1         -1      )

 cart.    s(39) = ( -1.0000000  0.0000000  0.0000000 )
                  (  0.0000000  0.0000000 -1.0000000 )
                  (  0.0000000  1.0000000  0.0000000 )


      isym = 40     inv.  90 deg rotation - cart. axis [1,0,0]   

 cryst.   s(40) = (    -1          1          0      )
                  (    -1          0          1      )
                  (    -1          0          0      )

 cart.    s(40) = ( -1.0000000  0.0000000  0.0000000 )
                  (  0.0000000  0.0000000  1.0000000 )
                  (  0.0000000 -1.0000000  0.0000000 )


      isym = 41     inv. 120 deg rotation - cart. axis [-1,-1,-1]

 cryst.   s(41) = (     1          0         -1      )
                  (     1         -1          0      )
                  (     1          0          0      )

 cart.    s(41) = (  0.0000000 -1.0000000  0.0000000 )
                  (  0.0000000  0.0000000 -1.0000000 )
                  ( -1.0000000  0.0000000  0.0000000 )


      isym = 42     inv. 120 deg rotation - cart. axis [-1,1,1]  

 cryst.   s(42) = (     0         -1          0      )
                  (     0          0         -1      )
                  (    -1          0          0      )

 cart.    s(42) = (  0.0000000  1.0000000  0.0000000 )
                  (  0.0000000  0.0000000 -1.0000000 )
                  (  1.0000000  0.0000000  0.0000000 )


      isym = 43     inv. 120 deg rotation - cart. axis [1,1,-1]  

 cryst.   s(43) = (    -1          0          1      )
                  (     0          0          1      )
                  (     0         -1          1      )

 cart.    s(43) = (  0.0000000 -1.0000000  0.0000000 )
                  (  0.0000000  0.0000000  1.0000000 )
                  (  1.0000000  0.0000000  0.0000000 )


      isym = 44     inv. 120 deg rotation - cart. axis [1,-1,1]  

 cryst.   s(44) = (     0          1          0      )
                  (    -1          1          0      )
                  (     0          1         -1      )

 cart.    s(44) = (  0.0000000  1.0000000  0.0000000 )
                  (  0.0000000  0.0000000  1.0000000 )
                  ( -1.0000000  0.0000000  0.0000000 )


      isym = 45     inv. 120 deg rotation - cart. axis [1,1,1]   

 cryst.   s(45) = (     0          0          1      )
                  (     0         -1          1      )
                  (    -1          0          1      )

 cart.    s(45) = (  0.0000000  0.0000000 -1.0000000 )
                  ( -1.0000000  0.0000000  0.0000000 )
                  (  0.0000000 -1.0000000  0.0000000 )


      isym = 46     inv. 120 deg rotation - cart. axis [-1,1,-1] 

 cryst.   s(46) = (     1         -1          0      )
                  (     1          0          0      )
                  (     1          0         -1      )

 cart.    s(46) = (  0.0000000  0.0000000 -1.0000000 )
                  (  1.0000000  0.0000000  0.0000000 )
                  (  0.0000000  1.0000000  0.0000000 )


      isym = 47     inv. 120 deg rotation - cart. axis [1,-1,-1] 

 cryst.   s(47) = (     0          0         -1      )
                  (    -1          0          0      )
                  (     0         -1          0      )

 cart.    s(47) = (  0.0000000  0.0000000  1.0000000 )
                  (  1.0000000  0.0000000  0.0000000 )
                  (  0.0000000 -1.0000000  0.0000000 )


      isym = 48     inv. 120 deg rotation - cart. axis [-1,-1,1] 

 cryst.   s(48) = (    -1          1          0      )
                  (     0          1         -1      )
                  (     0          1          0      )

 cart.    s(48) = (  0.0000000  0.0000000  1.0000000 )
                  ( -1.0000000  0.0000000  0.0000000 )
                  (  0.0000000  1.0000000  0.0000000 )


     point group O_h (m-3m) 
     there are 10 classes
     the character table:

       E     8C3   3C2   6C4   6C2'  i     8S6   3s_h  6S4   6s_d 
A_1g   1.00  1.00  1.00  1.00  1.00  1.00  1.00  1.00  1.00  1.00
A_2g   1.00  1.00  1.00 -1.00 -1.00  1.00  1.00  1.00 -1.00 -1.00
E_g    2.00 -1.00  2.00  0.00  0.00  2.00 -1.00  2.00  0.00  0.00
T_1g   3.00  0.00 -1.00  1.00 -1.00  3.00  0.00 -1.00  1.00 -1.00
T_2g   3.00  0.00 -1.00 -1.00  1.00  3.00  0.00 -1.00 -1.00  1.00
A_1u   1.00  1.00  1.00  1.00  1.00 -1.00 -1.00 -1.00 -1.00 -1.00
A_2u   1.00  1.00  1.00 -1.00 -1.00 -1.00 -1.00 -1.00  1.00  1.00
E_u    2.00 -1.00  2.00  0.00  0.00 -2.00  1.00 -2.00  0.00  0.00
T_1u   3.00  0.00 -1.00  1.00 -1.00 -3.00  0.00  1.00 -1.00  1.00
T_2u   3.00  0.00 -1.00 -1.00  1.00 -3.00  0.00  1.00  1.00 -1.00

     the symmetry operations in each class and the name of the first element:

     E        1
          identity                                               
     8C3     17   19   20   18   24   21   22   23
          120 deg rotation - cart. axis [-1,-1,-1]               
     3C2      2    4    3
          180 deg rotation - cart. axis [0,0,1]                  
     6C4      7    8   15   16   12   11
           90 deg rotation - cart. axis [0,0,-1]                 
     6C2'     5    6   14   13   10    9
          180 deg rotation - cart. axis [1,1,0]                  
     i       25
          inversion                                              
     8S6     41   43   44   42   48   45   46   47
          inv. 120 deg rotation - cart. axis [-1,-1,-1]          
     3s_h    26   28   27
          inv. 180 deg rotation - cart. axis [0,0,1]             
     6S4     31   32   39   40   36   35
          inv.  90 deg rotation - cart. axis [0,0,-1]            
     6s_d    29   30   38   37   34   33
          inv. 180 deg rotation - cart. axis [1,1,0]             

   Cartesian axes

     site n.     atom                  positions (alat units)
         1           Ca  tau(   1) = (   0.0000000   0.0000000   0.0000000  )
         2           O   tau(   2) = (  -0.5000000   0.5000000   0.5000000  )

   Crystallographic axes

     site n.     atom                  positions (cryst. coord.)
         1           Ca  tau(   1) = (  0.0000000  0.0000000  0.0000000  )
         2           O   tau(   2) = (  0.5000000  0.5000000  0.5000000  )

     number of k points=     8  gaussian smearing, width (Ry)=  0.0100
                       cart. coord. in units 2pi/alat
        k(    1) = (   0.0000000   0.0000000   0.0000000), wk =   0.0312500
        k(    2) = (  -0.2500000   0.2500000  -0.2500000), wk =   0.2500000
        k(    3) = (   0.5000000  -0.5000000   0.5000000), wk =   0.1250000
        k(    4) = (   0.0000000   0.5000000   0.0000000), wk =   0.1875000
        k(    5) = (   0.7500000  -0.2500000   0.7500000), wk =   0.7500000
        k(    6) = (   0.5000000   0.0000000   0.5000000), wk =   0.3750000
        k(    7) = (   0.0000000  -1.0000000   0.0000000), wk =   0.0937500
        k(    8) = (  -0.5000000  -1.0000000   0.0000000), wk =   0.1875000

                       cryst. coord.
        k(    1) = (   0.0000000   0.0000000   0.0000000), wk =   0.0312500
        k(    2) = (   0.0000000   0.0000000   0.2500000), wk =   0.2500000
        k(    3) = (   0.0000000   0.0000000  -0.5000000), wk =   0.1250000
        k(    4) = (   0.0000000   0.2500000   0.2500000), wk =   0.1875000
        k(    5) = (   0.0000000   0.2500000  -0.5000000), wk =   0.7500000
        k(    6) = (   0.0000000   0.2500000  -0.2500000), wk =   0.3750000
        k(    7) = (   0.0000000  -0.5000000  -0.5000000), wk =   0.0937500
        k(    8) = (   0.2500000  -0.5000000  -0.2500000), wk =   0.1875000

     Dense  grid:    17573 G-vectors     FFT dimensions: (  40,  40,  40)

     Smooth grid:     5209 G-vectors     FFT dimensions: (  25,  25,  25)

     Dynamical RAM for                 wfc:       0.02 MB

     Dynamical RAM for     wfc (w. buffer):       0.14 MB

     Dynamical RAM for           str. fact:       0.07 MB

     Dynamical RAM for           local pot:       0.00 MB

     Dynamical RAM for          nlocal pot:       0.03 MB

     Dynamical RAM for                qrad:       8.24 MB

     Dynamical RAM for          rho,v,vnew:       0.28 MB

     Dynamical RAM for               rhoin:       0.09 MB

     Dynamical RAM for            rho*nmix:       0.54 MB

     Dynamical RAM for           G-vectors:       0.13 MB

     Dynamical RAM for          h,s,v(r/c):       0.11 MB

     Dynamical RAM for          <psi|beta>:       0.00 MB

     Dynamical RAM for                 psi:       0.06 MB

     Dynamical RAM for                hpsi:       0.06 MB

     Dynamical RAM for                spsi:       0.06 MB

     Dynamical RAM for      wfcinit/wfcrot:       0.04 MB

     Dynamical RAM for           addusdens:       6.27 MB

     Dynamical RAM for          addusforce:       6.39 MB

     Dynamical RAM for         addusstress:       6.74 MB

     Estimated static dynamical RAM per process >       9.92 MB

     Estimated max dynamical RAM per process >      16.66 MB

     Estimated total dynamical RAM >     133.27 MB

     Check: negative core charge=   -0.000004

     Initial potential from superposition of free atoms

     starting charge   15.99454, renormalised to   16.00000

     negative rho (up, down):  1.520E-04 0.000E+00
     Starting wfcs are   14 randomized atomic wfcs

     total cpu time spent up to now is        2.9 secs

     Self-consistent Calculation

     iteration #  1     ecut=    35.00 Ry     beta= 0.40
     Davidson diagonalization with overlap
     ethr =  1.00E-02,  avg # of iterations =  2.1

     negative rho (up, down):  1.564E-04 0.000E+00

     total cpu time spent up to now is        3.1 secs

     total energy              =    -106.95177557 Ry
     Harris-Foulkes estimate   =    -107.20473370 Ry
     estimated scf accuracy    <       0.48569774 Ry

     iteration #  2     ecut=    35.00 Ry     beta= 0.40
     Davidson diagonalization with overlap
     ethr =  3.04E-03,  avg # of iterations =  2.5

     negative rho (up, down):  1.513E-04 0.000E+00

     total cpu time spent up to now is        3.2 secs

     total energy              =    -107.07732449 Ry
     Harris-Foulkes estimate   =    -107.11446548 Ry
     estimated scf accuracy    <       0.09949993 Ry

     iteration #  3     ecut=    35.00 Ry     beta= 0.40
     Davidson diagonalization with overlap
     ethr =  6.22E-04,  avg # of iterations =  2.5

     negative rho (up, down):  1.488E-04 0.000E+00

     total cpu time spent up to now is        3.4 secs

     total energy              =    -107.09658138 Ry
     Harris-Foulkes estimate   =    -107.09584595 Ry
     estimated scf accuracy    <       0.00612177 Ry

     iteration #  4     ecut=    35.00 Ry     beta= 0.40
     Davidson diagonalization with overlap
     ethr =  3.83E-05,  avg # of iterations =  3.1

     negative rho (up, down):  1.489E-04 0.000E+00

     total cpu time spent up to now is        3.5 secs

     total energy              =    -107.09724769 Ry
     Harris-Foulkes estimate   =    -107.09724388 Ry
     estimated scf accuracy    <       0.00002369 Ry

     iteration #  5     ecut=    35.00 Ry     beta= 0.40
     Davidson diagonalization with overlap
     ethr =  1.48E-07,  avg # of iterations =  3.8

     negative rho (up, down):  1.493E-04 0.000E+00

     total cpu time spent up to now is        3.7 secs

     total energy              =    -107.09730370 Ry
     Harris-Foulkes estimate   =    -107.09729351 Ry
     estimated scf accuracy    <       0.00000767 Ry

     iteration #  6     ecut=    35.00 Ry     beta= 0.40
     Davidson diagonalization with overlap
     ethr =  4.80E-08,  avg # of iterations =  2.9

     negative rho (up, down):  1.493E-04 0.000E+00

     total cpu time spent up to now is        3.9 secs

     total energy              =    -107.09730675 Ry
     Harris-Foulkes estimate   =    -107.09730747 Ry
     estimated scf accuracy    <       0.00000444 Ry

     iteration #  7     ecut=    35.00 Ry     beta= 0.40
     Davidson diagonalization with overlap
     ethr =  2.78E-08,  avg # of iterations =  2.0

     negative rho (up, down):  1.492E-04 0.000E+00

     total cpu time spent up to now is        4.0 secs

     End of self-consistent calculation

          k = 0.0000 0.0000 0.0000 (   645 PWs)   bands (ev):

   -29.8480 -10.6099 -10.6099 -10.6099  -7.7180   7.8071   7.8071   7.8071
    12.5310  14.0383  14.0383  14.0383

     occupation numbers 
     1.0000   1.0000   1.0000   1.0000   1.0000   1.0000   1.0000   1.0000
     0.0000   0.0000   0.0000   0.0000

          k =-0.2500 0.2500-0.2500 (   640 PWs)   bands (ev):

   -29.7974 -11.2374 -10.6367 -10.6367  -7.0545   6.2769   7.1510   7.1510
    14.0645  14.6759  14.9912  14.9912

     occupation numbers 
     1.0000   1.0000   1.0000   1.0000   1.0000   1.0000   1.0000   1.0000
     0.0000   0.0000   0.0000   0.0000

          k = 0.5000-0.5000 0.5000 (   652 PWs)   bands (ev):

   -29.7461 -11.7158 -10.6631 -10.6631  -6.5340   5.1756   6.6142   6.6142
    14.8688  16.1636  16.1636  16.2988

     occupation numbers 
     1.0000   1.0000   1.0000   1.0000   1.0000   1.0000   1.0000   1.0000
     0.0000   0.0000   0.0000   0.0000

          k = 0.0000 0.5000 0.0000 (   649 PWs)   bands (ev):

   -29.7815 -11.1228 -10.7230 -10.7230  -7.1913   6.1309   7.5083   7.5083
    12.5167  14.4260  15.8711  15.8712

     occupation numbers 
     1.0000   1.0000   1.0000   1.0000   1.0000   1.0000   1.0000   1.0000
     0.0000   0.0000   0.0000   0.0000

          k = 0.7500-0.2500 0.7500 (   655 PWs)   bands (ev):

   -29.7311 -11.3899 -10.8646 -10.7505  -6.9745   6.0191   6.7273   7.0097
    13.1592  15.6665  16.6421  16.6750

     occupation numbers 
     1.0000   1.0000   1.0000   1.0000   1.0000   1.0000   1.0000   1.0000
     0.0000   0.0000   0.0000   0.0000

          k = 0.5000 0.0000 0.5000 (   656 PWs)   bands (ev):

   -29.7473 -11.4186 -10.8744 -10.6647  -6.8179   5.7457   6.7096   6.9635
    14.3032  15.0788  15.6506  16.1930

     occupation numbers 
     1.0000   1.0000   1.0000   1.0000   1.0000   1.0000   1.0000   1.0000
     0.0000   0.0000   0.0000   0.0000

          k = 0.0000-1.0000 0.0000 (   652 PWs)   bands (ev):

   -29.7159 -11.2069 -10.8359 -10.8359  -7.4817   6.5012   7.4314   7.4314
    11.4558  15.8533  16.6942  17.3359

     occupation numbers 
     1.0000   1.0000   1.0000   1.0000   1.0000   1.0000   1.0000   1.0000
     0.0000   0.0000   0.0000   0.0000

          k =-0.5000-1.0000 0.0000 (   648 PWs)   bands (ev):

   -29.7149 -11.0334 -11.0236 -11.0236  -7.0976   6.5269   6.7475   6.7475
    14.1259  14.1259  16.1920  17.3419

     occupation numbers 
     1.0000   1.0000   1.0000   1.0000   1.0000   1.0000   1.0000   1.0000
     0.0000   0.0000   0.0000   0.0000

     the Fermi energy is     8.6638 ev

!    total energy              =    -107.09730751 Ry
     Harris-Foulkes estimate   =    -107.09730724 Ry
     estimated scf accuracy    <       0.00000025 Ry

     The total energy is the sum of the following terms:

     one-electron contribution =     -25.76537434 Ry
     hartree contribution      =      20.77502242 Ry
     xc contribution           =     -19.08631694 Ry
     ewald contribution        =     -83.02063866 Ry
     smearing contrib. (-TS)   =      -0.00000000 Ry

     convergence has been achieved in   7 iterations

     negative rho (up, down):  1.492E-04 0.000E+00

     Forces acting on atoms (cartesian axes, Ry/au):

     atom    1 type  1   force =     0.00000000    0.00000000    0.00000000
     atom    2 type  2   force =     0.00000000    0.00000000    0.00000000
     The non-local contrib.  to forces
     atom    1 type  1   force =     0.00000000    0.00000000    0.00000000
     atom    2 type  2   force =     0.00000000    0.00000000    0.00000000
     The ionic contribution  to forces
     atom    1 type  1   force =     0.00000000   -0.00000000   -0.00000000
     atom    2 type  2   force =    -0.00000000    0.00000000    0.00000000
     The local contribution  to forces
     atom    1 type  1   force =     0.00000000   -0.00000000   -0.00000000
     atom    2 type  2   force =    -0.00000000    0.00000000    0.00000000
     The core correction contribution to forces
     atom    1 type  1   force =     0.00000000   -0.00000000    0.00000000
     atom    2 type  2   force =     0.00000000    0.00000000    0.00000000
     The Hubbard contrib.    to forces
     atom    1 type  1   force =     0.00000000    0.00000000    0.00000000
     atom    2 type  2   force =     0.00000000    0.00000000    0.00000000
     The SCF correction term to forces
     atom    1 type  1   force =    -0.00000000    0.00000000   -0.00000000
     atom    2 type  2   force =    -0.00000000    0.00000000   -0.00000000

     Total force =     0.000000     Total SCF correction =     0.000000


     Computing stress (Cartesian axis) and pressure


     negative rho (up, down):  1.492E-04 0.000E+00
          total   stress  (Ry/bohr**3)                   (kbar)     P=   14.21
   0.00009658   0.00000000  -0.00000000         14.21      0.00     -0.00
   0.00000000   0.00009658  -0.00000000          0.00     14.21     -0.00
  -0.00000000   0.00000000   0.00009658         -0.00      0.00     14.21

     kinetic stress (kbar)  13890.84     -0.00      0.00
                               -0.00  13890.84      0.00
                                0.00      0.00  13890.84

     local   stress (kbar)  -4786.91     -0.00      0.00
                               -0.00  -4786.91     -0.00
                                0.00     -0.00  -4786.91

     nonloc. stress (kbar)  11856.06     -0.00     -0.00
                               -0.00  11856.06      0.00
                               -0.00      0.00  11856.06

     hartree stress (kbar)   5432.73     -0.00     -0.00
                               -0.00   5432.73      0.00
                               -0.00      0.00   5432.73

     exc-cor stress (kbar)  -3348.05      0.00     -0.00
                                0.00  -3348.05      0.00
                               -0.00      0.00  -3348.05

     corecor stress (kbar)  -1320.33      0.00     -0.00
                                0.00  -1320.33     -0.00
                               -0.00     -0.00  -1320.33

     ewald   stress (kbar) -21710.13     -0.00      0.00
                               -0.00 -21710.13     -0.00
                                0.00     -0.00 -21710.13

     hubbard stress (kbar)      0.00      0.00      0.00
                                0.00      0.00      0.00
                                0.00      0.00      0.00

     london  stress (kbar)      0.00      0.00      0.00
                                0.00      0.00      0.00
                                0.00      0.00      0.00

     DFT-D3  stress (kbar)      0.00      0.00      0.00
                                0.00      0.00      0.00
                                0.00      0.00      0.00

     XDM     stress (kbar)      0.00      0.00      0.00
                                0.00      0.00      0.00
                                0.00      0.00      0.00

     dft-nl  stress (kbar)      0.00      0.00      0.00
                                0.00      0.00      0.00
                                0.00      0.00      0.00

     TS-vdW  stress (kbar)      0.00      0.00      0.00
                                0.00      0.00      0.00
                                0.00      0.00      0.00



     BFGS Geometry Optimization

     number of scf cycles    =   1
     number of bfgs steps    =   0

     enthalpy new            =    -107.0973075116 Ry

     new trust radius        =       0.0066125588 bohr
     new conv_thr            =       0.0000010000 Ry

     new unit-cell volume =    188.87392 a.u.^3 (    27.98823 Ang^3 )
     density =      3.32707 g/cm^3

CELL_PARAMETERS (alat=  9.08580325)
  -0.501207243  -0.000000000   0.501207243
   0.000000000   0.501207243   0.501207243
  -0.501207243   0.501207243   0.000000000

ATOMIC_POSITIONS (crystal)
Ca       0.000000000   0.000000000   0.000000000
O        0.500000000   0.500000000   0.500000000



     Writing output data file CaO.save/
     NEW-OLD atomic charge density approx. for the potential

     Check: negative core charge=   -0.000004

     negative rho (up, down):  1.515E-04 0.000E+00
     extrapolated charge   16.11530, renormalised to   16.00000

     total cpu time spent up to now is        4.8 secs

     Self-consistent Calculation

     iteration #  1     ecut=    35.00 Ry     beta= 0.40
     Davidson diagonalization with overlap
     ethr =  1.00E-06,  avg # of iterations =  3.8

     negative rho (up, down):  1.513E-04 0.000E+00

     total cpu time spent up to now is        5.0 secs

     total energy              =    -107.09517993 Ry
     Harris-Foulkes estimate   =    -106.96311320 Ry
     estimated scf accuracy    <       0.00206273 Ry

     iteration #  2     ecut=    35.00 Ry     beta= 0.40
     Davidson diagonalization with overlap
     ethr =  1.29E-05,  avg # of iterations =  3.1

     negative rho (up, down):  1.513E-04 0.000E+00

     total cpu time spent up to now is        5.2 secs

     total energy              =    -107.09732535 Ry
     Harris-Foulkes estimate   =    -107.09841245 Ry
     estimated scf accuracy    <       0.00434524 Ry

     iteration #  3     ecut=    35.00 Ry     beta= 0.40
     Davidson diagonalization with overlap
     ethr =  1.29E-05,  avg # of iterations =  2.0

     negative rho (up, down):  1.510E-04 0.000E+00

     total cpu time spent up to now is        5.3 secs

     total energy              =    -107.09736203 Ry
     Harris-Foulkes estimate   =    -107.09756006 Ry
     estimated scf accuracy    <       0.00088842 Ry

     iteration #  4     ecut=    35.00 Ry     beta= 0.40
     Davidson diagonalization with overlap
     ethr =  5.55E-06,  avg # of iterations =  1.6

     negative rho (up, down):  1.507E-04 0.000E+00

     total cpu time spent up to now is        5.5 secs

     total energy              =    -107.09738871 Ry
     Harris-Foulkes estimate   =    -107.09742567 Ry
     estimated scf accuracy    <       0.00021021 Ry

     iteration #  5     ecut=    35.00 Ry     beta= 0.40
     Davidson diagonalization with overlap
     ethr =  1.31E-06,  avg # of iterations =  2.1

     negative rho (up, down):  1.505E-04 0.000E+00

     total cpu time spent up to now is        5.6 secs

     total energy              =    -107.09739235 Ry
     Harris-Foulkes estimate   =    -107.09740464 Ry
     estimated scf accuracy    <       0.00006774 Ry

     iteration #  6     ecut=    35.00 Ry     beta= 0.40
     Davidson diagonalization with overlap
     ethr =  4.23E-07,  avg # of iterations =  1.3

     negative rho (up, down):  1.502E-04 0.000E+00

     total cpu time spent up to now is        5.7 secs

     total energy              =    -107.09737860 Ry
     Harris-Foulkes estimate   =    -107.09739500 Ry
     estimated scf accuracy    <       0.00002603 Ry

     iteration #  7     ecut=    35.00 Ry     beta= 0.40
     Davidson diagonalization with overlap
     ethr =  1.63E-07,  avg # of iterations =  3.3

     negative rho (up, down):  1.504E-04 0.000E+00

     total cpu time spent up to now is        5.9 secs

     total energy              =    -107.09738837 Ry
     Harris-Foulkes estimate   =    -107.09739799 Ry
     estimated scf accuracy    <       0.00003057 Ry

     iteration #  8     ecut=    35.00 Ry     beta= 0.40
     Davidson diagonalization with overlap
     ethr =  1.63E-07,  avg # of iterations =  2.0

     negative rho (up, down):  1.504E-04 0.000E+00

     total cpu time spent up to now is        6.0 secs

     total energy              =    -107.09738989 Ry
     Harris-Foulkes estimate   =    -107.09739073 Ry
     estimated scf accuracy    <       0.00000351 Ry

     iteration #  9     ecut=    35.00 Ry     beta= 0.40
     Davidson diagonalization with overlap
     ethr =  2.20E-08,  avg # of iterations =  1.9

     negative rho (up, down):  1.504E-04 0.000E+00

     total cpu time spent up to now is        6.1 secs

     End of self-consistent calculation

          k = 0.0000 0.0000 0.0000 (   645 PWs)   bands (ev):

   -29.9585 -10.7254 -10.7254 -10.7254  -7.7819   7.7297   7.7297   7.7297
    12.3923  13.9396  13.9396  13.9396

     occupation numbers 
     1.0000   1.0000   1.0000   1.0000   1.0000   1.0000   1.0000   1.0000
     0.0000   0.0000   0.0000   0.0000

          k =-0.2494 0.2494-0.2494 (   640 PWs)   bands (ev):

   -29.9094 -11.3326 -10.7517 -10.7517  -7.1374   6.2069   7.0813   7.0813
    13.9612  14.5342  14.8838  14.8838

     occupation numbers 
     1.0000   1.0000   1.0000   1.0000   1.0000   1.0000   1.0000   1.0000
     0.0000   0.0000   0.0000   0.0000

          k = 0.4988-0.4988 0.4988 (   652 PWs)   bands (ev):

   -29.8598 -11.7994 -10.7776 -10.7776  -6.6274   5.1137   6.5503   6.5503
    14.7553  16.0436  16.0436  16.1631

     occupation numbers 
     1.0000   1.0000   1.0000   1.0000   1.0000   1.0000   1.0000   1.0000
     0.0000   0.0000   0.0000   0.0000

          k = 0.0000 0.4988 0.0000 (   649 PWs)   bands (ev):

   -29.8940 -11.2218 -10.8358 -10.8358  -7.2692   6.0636   7.4314   7.4314
    12.4305  14.2896  15.7548  15.7548

     occupation numbers 
     1.0000   1.0000   1.0000   1.0000   1.0000   1.0000   1.0000   1.0000
     0.0000   0.0000   0.0000   0.0000

          k = 0.7482-0.2494 0.7482 (   655 PWs)   bands (ev):

   -29.8453 -11.4825 -10.9738 -10.8627  -7.0552   5.9478   6.6557   6.9385
    13.0649  15.5432  16.5082  16.5510

     occupation numbers 
     1.0000   1.0000   1.0000   1.0000   1.0000   1.0000   1.0000   1.0000
     0.0000   0.0000   0.0000   0.0000

          k = 0.4988 0.0000 0.4988 (   656 PWs)   bands (ev):

   -29.8609 -11.5094 -10.9833 -10.7792  -6.9045   5.6808   6.6442   6.8880
    14.1986  14.9572  15.5381  16.0664

     occupation numbers 
     1.0000   1.0000   1.0000   1.0000   1.0000   1.0000   1.0000   1.0000
     0.0000   0.0000   0.0000   0.0000

          k = 0.0000-0.9976 0.0000 (   652 PWs)   bands (ev):

   -29.8306 -11.3077 -10.9459 -10.9459  -7.5452   6.4201   7.3524   7.3524
    11.3769  15.7196  16.5724  17.2063

     occupation numbers 
     1.0000   1.0000   1.0000   1.0000   1.0000   1.0000   1.0000   1.0000
     0.0000   0.0000   0.0000   0.0000

          k =-0.4988-0.9976 0.0000 (   648 PWs)   bands (ev):

   -29.8296 -11.1348 -11.1289 -11.1289  -7.1746   6.4600   6.6697   6.6697
    14.0234  14.0234  16.0617  17.2122

     occupation numbers 
     1.0000   1.0000   1.0000   1.0000   1.0000   1.0000   1.0000   1.0000
     0.0000   0.0000   0.0000   0.0000

     the Fermi energy is     8.5377 ev

!    total energy              =    -107.09738973 Ry
     Harris-Foulkes estimate   =    -107.09739027 Ry
     estimated scf accuracy    <       0.00000064 Ry

     The total energy is the sum of the following terms:

     one-electron contribution =     -26.05913521 Ry
     hartree contribution      =      20.85999030 Ry
     xc contribution           =     -19.07757545 Ry
     ewald contribution        =     -82.82066937 Ry
     smearing contrib. (-TS)   =      -0.00000000 Ry

     convergence has been achieved in   9 iterations

     negative rho (up, down):  1.504E-04 0.000E+00

     Forces acting on atoms (cartesian axes, Ry/au):

     atom    1 type  1   force =     0.00000000    0.00000000    0.00000000
     atom    2 type  2   force =     0.00000000    0.00000000    0.00000000
     The non-local contrib.  to forces
     atom    1 type  1   force =     0.00000000    0.00000000    0.00000000
     atom    2 type  2   force =     0.00000000    0.00000000   -0.00000000
     The ionic contribution  to forces
     atom    1 type  1   force =    -0.00000000    0.00000000    0.00000000
     atom    2 type  2   force =     0.00000000   -0.00000000   -0.00000000
     The local contribution  to forces
     atom    1 type  1   force =     0.00000000   -0.00000000   -0.00000000
     atom    2 type  2   force =     0.00000000   -0.00000000   -0.00000000
     The core correction contribution to forces
     atom    1 type  1   force =     0.00000000   -0.00000000   -0.00000000
     atom    2 type  2   force =     0.00000000    0.00000000    0.00000000
     The Hubbard contrib.    to forces
     atom    1 type  1   force =     0.00000000    0.00000000    0.00000000
     atom    2 type  2   force =     0.00000000    0.00000000    0.00000000
     The SCF correction term to forces
     atom    1 type  1   force =     0.00000000   -0.00000000    0.00000000
     atom    2 type  2   force =     0.00000000   -0.00000000    0.00000000

     Total force =     0.000000     Total SCF correction =     0.000000


     Computing stress (Cartesian axis) and pressure


     negative rho (up, down):  1.504E-04 0.000E+00
          total   stress  (Ry/bohr**3)                   (kbar)     P=    3.51
   0.00002383  -0.00000000   0.00000000          3.51     -0.00      0.00
  -0.00000000   0.00002383  -0.00000000         -0.00      3.51     -0.00
   0.00000000  -0.00000000   0.00002383          0.00     -0.00      3.51

     kinetic stress (kbar)  13779.60     -0.00      0.00
                               -0.00  13779.60     -0.00
                                0.00     -0.00  13779.60

     local   stress (kbar)  -4824.43      0.00     -0.00
                                0.00  -4824.43     -0.00
                               -0.00     -0.00  -4824.43

     nonloc. stress (kbar)  11767.08     -0.00     -0.00
                               -0.00  11767.08      0.00
                               -0.00      0.00  11767.08

     hartree stress (kbar)   5415.62      0.00     -0.00
                                0.00   5415.62      0.00
                               -0.00      0.00   5415.62

     exc-cor stress (kbar)  -3321.89      0.00     -0.00
                                0.00  -3321.89      0.00
                               -0.00      0.00  -3321.89

     corecor stress (kbar)  -1310.77     -0.00     -0.00
                               -0.00  -1310.77     -0.00
                               -0.00     -0.00  -1310.77

     ewald   stress (kbar) -21501.71      0.00     -0.00
                                0.00 -21501.71      0.00
                               -0.00      0.00 -21501.71

     hubbard stress (kbar)      0.00      0.00      0.00
                                0.00      0.00      0.00
                                0.00      0.00      0.00

     london  stress (kbar)      0.00      0.00      0.00
                                0.00      0.00      0.00
                                0.00      0.00      0.00

     DFT-D3  stress (kbar)      0.00      0.00      0.00
                                0.00      0.00      0.00
                                0.00      0.00      0.00

     XDM     stress (kbar)      0.00      0.00      0.00
                                0.00      0.00      0.00
                                0.00      0.00      0.00

     dft-nl  stress (kbar)      0.00      0.00      0.00
                                0.00      0.00      0.00
                                0.00      0.00      0.00

     TS-vdW  stress (kbar)      0.00      0.00      0.00
                                0.00      0.00      0.00
                                0.00      0.00      0.00



     number of scf cycles    =   2
     number of bfgs steps    =   1

     enthalpy old            =    -107.0973075116 Ry
     enthalpy new            =    -107.0973897312 Ry

     CASE: enthalpy_new < enthalpy_old

     new trust radius        =       0.0021826871 bohr
     new conv_thr            =       0.0000000100 Ry

     new unit-cell volume =    189.32423 a.u.^3 (    28.05496 Ang^3 )
     density =      3.31915 g/cm^3

CELL_PARAMETERS (alat=  9.08580325)
  -0.501605252  -0.000000000   0.501605252
   0.000000000   0.501605252   0.501605252
  -0.501605252   0.501605252   0.000000000

ATOMIC_POSITIONS (crystal)
Ca       0.000000000   0.000000000   0.000000000
O        0.500000000   0.500000000   0.500000000



     Writing output data file CaO.save/
     NEW-OLD atomic charge density approx. for the potential

     Check: negative core charge=   -0.000004

     negative rho (up, down):  1.512E-04 0.000E+00
     extrapolated charge   16.03804, renormalised to   16.00000

     total cpu time spent up to now is        6.9 secs

     Self-consistent Calculation

     iteration #  1     ecut=    35.00 Ry     beta= 0.40
     Davidson diagonalization with overlap
     ethr =  1.00E-06,  avg # of iterations =  2.5

     negative rho (up, down):  1.512E-04 0.000E+00

     total cpu time spent up to now is        7.1 secs

     total energy              =    -107.09721116 Ry
     Harris-Foulkes estimate   =    -107.05289697 Ry
     estimated scf accuracy    <       0.00014609 Ry

     iteration #  2     ecut=    35.00 Ry     beta= 0.40
     Davidson diagonalization with overlap
     ethr =  9.13E-07,  avg # of iterations =  3.4

     negative rho (up, down):  1.512E-04 0.000E+00

     total cpu time spent up to now is        7.3 secs

     total energy              =    -107.09740309 Ry
     Harris-Foulkes estimate   =    -107.09749453 Ry
     estimated scf accuracy    <       0.00039460 Ry

     iteration #  3     ecut=    35.00 Ry     beta= 0.40
     Davidson diagonalization with overlap
     ethr =  9.13E-07,  avg # of iterations =  2.3

     negative rho (up, down):  1.510E-04 0.000E+00

     total cpu time spent up to now is        7.4 secs

     total energy              =    -107.09739925 Ry
     Harris-Foulkes estimate   =    -107.09742133 Ry
     estimated scf accuracy    <       0.00009500 Ry

     iteration #  4     ecut=    35.00 Ry     beta= 0.40
     Davidson diagonalization with overlap
     ethr =  5.94E-07,  avg # of iterations =  1.5

     negative rho (up, down):  1.509E-04 0.000E+00

     total cpu time spent up to now is        7.5 secs

     total energy              =    -107.09739984 Ry
     Harris-Foulkes estimate   =    -107.09740574 Ry
     estimated scf accuracy    <       0.00002110 Ry

     iteration #  5     ecut=    35.00 Ry     beta= 0.40
     Davidson diagonalization with overlap
     ethr =  1.32E-07,  avg # of iterations =  2.5

     negative rho (up, down):  1.508E-04 0.000E+00

     total cpu time spent up to now is        7.7 secs

     total energy              =    -107.09740197 Ry
     Harris-Foulkes estimate   =    -107.09740256 Ry
     estimated scf accuracy    <       0.00000218 Ry

     iteration #  6     ecut=    35.00 Ry     beta= 0.40
     Davidson diagonalization with overlap
     ethr =  1.36E-08,  avg # of iterations =  1.9

     negative rho (up, down):  1.508E-04 0.000E+00

     total cpu time spent up to now is        7.8 secs

     total energy              =    -107.09740210 Ry
     Harris-Foulkes estimate   =    -107.09740223 Ry
     estimated scf accuracy    <       0.00000027 Ry

     iteration #  7     ecut=    35.00 Ry     beta= 0.40
     Davidson diagonalization with overlap
     ethr =  1.66E-09,  avg # of iterations =  3.4

     negative rho (up, down):  1.508E-04 0.000E+00

     total cpu time spent up to now is        8.0 secs

     total energy              =    -107.09740195 Ry
     Harris-Foulkes estimate   =    -107.09740271 Ry
     estimated scf accuracy    <       0.00000191 Ry

     iteration #  8     ecut=    35.00 Ry     beta= 0.40
     Davidson diagonalization with overlap
     ethr =  1.66E-09,  avg # of iterations =  3.1

     negative rho (up, down):  1.508E-04 0.000E+00

     total cpu time spent up to now is        8.1 secs

     total energy              =    -107.09740221 Ry
     Harris-Foulkes estimate   =    -107.09740222 Ry
     estimated scf accuracy    <       0.00000002 Ry

     iteration #  9     ecut=    35.00 Ry     beta= 0.40
     Davidson diagonalization with overlap
     ethr =  9.55E-11,  avg # of iterations =  2.8

     negative rho (up, down):  1.508E-04 0.000E+00

     total cpu time spent up to now is        8.3 secs

     End of self-consistent calculation

          k = 0.0000 0.0000 0.0000 (   645 PWs)   bands (ev):

   -29.9944 -10.7629 -10.7629 -10.7629  -7.8058   7.7012   7.7012   7.7012
    12.3465  13.9076  13.9076  13.9076

     occupation numbers 
     1.0000   1.0000   1.0000   1.0000   1.0000   1.0000   1.0000   1.0000
     0.0000   0.0000   0.0000   0.0000

          k =-0.2492 0.2492-0.2492 (   640 PWs)   bands (ev):

   -29.9459 -11.3639 -10.7891 -10.7891  -7.1672   6.1818   7.0558   7.0558
    13.9274  14.4868  14.8488  14.8488

     occupation numbers 
     1.0000   1.0000   1.0000   1.0000   1.0000   1.0000   1.0000   1.0000
     0.0000   0.0000   0.0000   0.0000

          k = 0.4984-0.4984 0.4984 (   652 PWs)   bands (ev):

   -29.8968 -11.8271 -10.8149 -10.8149  -6.6607   5.0917   6.5268   6.5268
    14.7173  16.0044  16.0044  16.1187

     occupation numbers 
     1.0000   1.0000   1.0000   1.0000   1.0000   1.0000   1.0000   1.0000
     0.0000   0.0000   0.0000   0.0000

          k = 0.0000 0.4984 0.0000 (   649 PWs)   bands (ev):

   -29.9306 -11.2543 -10.8724 -10.8724  -7.2975   6.0392   7.4034   7.4034
    12.4026  14.2446  15.7168  15.7168

     occupation numbers 
     1.0000   1.0000   1.0000   1.0000   1.0000   1.0000   1.0000   1.0000
     0.0000   0.0000   0.0000   0.0000

          k = 0.7476-0.2492 0.7476 (   655 PWs)   bands (ev):

   -29.8824 -11.5130 -11.0093 -10.8992  -7.0845   5.9224   6.6299   6.9125
    13.0340  15.5024  16.4641  16.5105

     occupation numbers 
     1.0000   1.0000   1.0000   1.0000   1.0000   1.0000   1.0000   1.0000
     0.0000   0.0000   0.0000   0.0000

          k = 0.4984 0.0000 0.4984 (   656 PWs)   bands (ev):

   -29.8979 -11.5393 -11.0188 -10.8164  -6.9356   5.6574   6.6202   6.8609
    14.1640  14.9169  15.5016  16.0249

     occupation numbers 
     1.0000   1.0000   1.0000   1.0000   1.0000   1.0000   1.0000   1.0000
     0.0000   0.0000   0.0000   0.0000

          k = 0.0000-0.9968 0.0000 (   652 PWs)   bands (ev):

   -29.8679 -11.3405 -10.9817 -10.9817  -7.5692   6.3914   7.3236   7.3236
    11.3515  15.6756  16.5326  17.1641

     occupation numbers 
     1.0000   1.0000   1.0000   1.0000   1.0000   1.0000   1.0000   1.0000
     0.0000   0.0000   0.0000   0.0000

          k =-0.4984-0.9968 0.0000 (   648 PWs)   bands (ev):

   -29.8669 -11.1680 -11.1631 -11.1631  -7.2028   6.4356   6.6419   6.6419
    13.9896  13.9896  16.0188  17.1700

     occupation numbers 
     1.0000   1.0000   1.0000   1.0000   1.0000   1.0000   1.0000   1.0000
     0.0000   0.0000   0.0000   0.0000

     the Fermi energy is     8.4967 ev

!    total energy              =    -107.09740221 Ry
     Harris-Foulkes estimate   =    -107.09740222 Ry
     estimated scf accuracy    <          4.6E-09 Ry

     The total energy is the sum of the following terms:

     one-electron contribution =     -26.15902341 Ry
     hartree contribution      =      20.89247399 Ry
     xc contribution           =     -19.07589917 Ry
     ewald contribution        =     -82.75495362 Ry
     smearing contrib. (-TS)   =      -0.00000000 Ry

     convergence has been achieved in   9 iterations

     negative rho (up, down):  1.508E-04 0.000E+00

     Forces acting on atoms (cartesian axes, Ry/au):

     atom    1 type  1   force =     0.00000000    0.00000000    0.00000000
     atom    2 type  2   force =     0.00000000    0.00000000    0.00000000
     The non-local contrib.  to forces
     atom    1 type  1   force =     0.00000000    0.00000000    0.00000000
     atom    2 type  2   force =    -0.00000000   -0.00000000    0.00000000
     The ionic contribution  to forces
     atom    1 type  1   force =     0.00000000   -0.00000000   -0.00000000
     atom    2 type  2   force =    -0.00000000    0.00000000    0.00000000
     The local contribution  to forces
     atom    1 type  1   force =     0.00000000   -0.00000000   -0.00000000
     atom    2 type  2   force =    -0.00000000    0.00000000   -0.00000000
     The core correction contribution to forces
     atom    1 type  1   force =     0.00000000   -0.00000000   -0.00000000
     atom    2 type  2   force =     0.00000000    0.00000000    0.00000000
     The Hubbard contrib.    to forces
     atom    1 type  1   force =     0.00000000    0.00000000    0.00000000
     atom    2 type  2   force =     0.00000000    0.00000000    0.00000000
     The SCF correction term to forces
     atom    1 type  1   force =    -0.00000000    0.00000000   -0.00000000
     atom    2 type  2   force =    -0.00000000   -0.00000000    0.00000000

     Total force =     0.000000     Total SCF correction =     0.000000


     Computing stress (Cartesian axis) and pressure


     negative rho (up, down):  1.508E-04 0.000E+00
          total   stress  (Ry/bohr**3)                   (kbar)     P=    3.12
   0.00002119  -0.00000000  -0.00000000          3.12     -0.00     -0.00
   0.00000000   0.00002119   0.00000000          0.00      3.12      0.00
  -0.00000000   0.00000000   0.00002119         -0.00      0.00      3.12

     kinetic stress (kbar)  13744.78      0.00      0.00
                               -0.00  13744.78     -0.00
                               -0.00     -0.00  13744.78

     local   stress (kbar)  -4838.08     -0.00     -0.00
                               -0.00  -4838.08     -0.00
                               -0.00     -0.00  -4838.08

     nonloc. stress (kbar)  11740.08     -0.00     -0.00
                               -0.00  11740.08      0.00
                               -0.00      0.00  11740.08

     hartree stress (kbar)   5411.16     -0.00      0.00
                               -0.00   5411.16     -0.00
                                0.00     -0.00   5411.16

     exc-cor stress (kbar)  -3313.64     -0.00      0.00
                               -0.00  -3313.64     -0.00
                                0.00     -0.00  -3313.64

     corecor stress (kbar)  -1307.63      0.00     -0.00
                                0.00  -1307.63      0.00
                               -0.00      0.00  -1307.63

     ewald   stress (kbar) -21433.55     -0.00      0.00
                               -0.00 -21433.55     -0.00
                                0.00     -0.00 -21433.55

     hubbard stress (kbar)      0.00      0.00      0.00
                                0.00      0.00      0.00
                                0.00      0.00      0.00

     london  stress (kbar)      0.00      0.00      0.00
                                0.00      0.00      0.00
                                0.00      0.00      0.00

     DFT-D3  stress (kbar)      0.00      0.00      0.00
                                0.00      0.00      0.00
                                0.00      0.00      0.00

     XDM     stress (kbar)      0.00      0.00      0.00
                                0.00      0.00      0.00
                                0.00      0.00      0.00

     dft-nl  stress (kbar)      0.00      0.00      0.00
                                0.00      0.00      0.00
                                0.00      0.00      0.00

     TS-vdW  stress (kbar)      0.00      0.00      0.00
                                0.00      0.00      0.00
                                0.00      0.00      0.00



     number of scf cycles    =   3
     number of bfgs steps    =   2

     enthalpy old            =    -107.0973897312 Ry
     enthalpy new            =    -107.0974022137 Ry

     CASE: enthalpy_new < enthalpy_old


     WARNING: bfgs curvature condition failed, Theta= 0.898
     new trust radius        =       0.0024019089 bohr
     new conv_thr            =       0.0000000100 Ry

     new unit-cell volume =    189.82040 a.u.^3 (    28.12848 Ang^3 )
     density =      3.31048 g/cm^3

CELL_PARAMETERS (alat=  9.08580325)
  -0.502043061  -0.000000000   0.502043061
   0.000000000   0.502043061   0.502043061
  -0.502043061   0.502043061   0.000000000

ATOMIC_POSITIONS (crystal)
Ca       0.000000000   0.000000000   0.000000000
O        0.500000000   0.500000000   0.500000000



     Writing output data file CaO.save/
     NEW-OLD atomic charge density approx. for the potential

     Check: negative core charge=   -0.000004

     negative rho (up, down):  1.517E-04 0.000E+00
     extrapolated charge   16.04181, renormalised to   16.00000

     total cpu time spent up to now is        9.1 secs

     Self-consistent Calculation

     iteration #  1     ecut=    35.00 Ry     beta= 0.40
     Davidson diagonalization with overlap
     ethr =  1.00E-06,  avg # of iterations =  2.5

     negative rho (up, down):  1.516E-04 0.000E+00

     total cpu time spent up to now is        9.3 secs

     total energy              =    -107.09713338 Ry
     Harris-Foulkes estimate   =    -107.04832926 Ry
     estimated scf accuracy    <       0.00024668 Ry

     iteration #  2     ecut=    35.00 Ry     beta= 0.40
     Davidson diagonalization with overlap
     ethr =  1.54E-06,  avg # of iterations =  3.1

     negative rho (up, down):  1.516E-04 0.000E+00

     total cpu time spent up to now is        9.4 secs

     total energy              =    -107.09739893 Ry
     Harris-Foulkes estimate   =    -107.09753256 Ry
     estimated scf accuracy    <       0.00054037 Ry

     iteration #  3     ecut=    35.00 Ry     beta= 0.40
     Davidson diagonalization with overlap
     ethr =  1.54E-06,  avg # of iterations =  2.0

     negative rho (up, down):  1.515E-04 0.000E+00

     total cpu time spent up to now is        9.6 secs

     total energy              =    -107.09740369 Ry
     Harris-Foulkes estimate   =    -107.09742790 Ry
     estimated scf accuracy    <       0.00011002 Ry

     iteration #  4     ecut=    35.00 Ry     beta= 0.40
     Davidson diagonalization with overlap
     ethr =  6.88E-07,  avg # of iterations =  1.6

     negative rho (up, down):  1.513E-04 0.000E+00

     total cpu time spent up to now is        9.7 secs

     total energy              =    -107.09740612 Ry
     Harris-Foulkes estimate   =    -107.09741157 Ry
     estimated scf accuracy    <       0.00002601 Ry

     iteration #  5     ecut=    35.00 Ry     beta= 0.40
     Davidson diagonalization with overlap
     ethr =  1.63E-07,  avg # of iterations =  2.1

     negative rho (up, down):  1.513E-04 0.000E+00

     total cpu time spent up to now is        9.8 secs

     total energy              =    -107.09740637 Ry
     Harris-Foulkes estimate   =    -107.09740816 Ry
     estimated scf accuracy    <       0.00000667 Ry

     iteration #  6     ecut=    35.00 Ry     beta= 0.40
     Davidson diagonalization with overlap
     ethr =  4.17E-08,  avg # of iterations =  1.8

     negative rho (up, down):  1.512E-04 0.000E+00

     total cpu time spent up to now is       10.0 secs

     total energy              =    -107.09740632 Ry
     Harris-Foulkes estimate   =    -107.09740692 Ry
     estimated scf accuracy    <       0.00000102 Ry

     iteration #  7     ecut=    35.00 Ry     beta= 0.40
     Davidson diagonalization with overlap
     ethr =  6.40E-09,  avg # of iterations =  3.3

     negative rho (up, down):  1.513E-04 0.000E+00

     total cpu time spent up to now is       10.1 secs

     total energy              =    -107.09740667 Ry
     Harris-Foulkes estimate   =    -107.09740695 Ry
     estimated scf accuracy    <       0.00000075 Ry

     iteration #  8     ecut=    35.00 Ry     beta= 0.40
     Davidson diagonalization with overlap
     ethr =  4.70E-09,  avg # of iterations =  2.0

     negative rho (up, down):  1.513E-04 0.000E+00

     total cpu time spent up to now is       10.3 secs

     total energy              =    -107.09740677 Ry
     Harris-Foulkes estimate   =    -107.09740677 Ry
     estimated scf accuracy    <       0.00000001 Ry

     iteration #  9     ecut=    35.00 Ry     beta= 0.40
     Davidson diagonalization with overlap
     ethr =  9.02E-11,  avg # of iterations =  3.3

     negative rho (up, down):  1.513E-04 0.000E+00

     total cpu time spent up to now is       10.4 secs

     End of self-consistent calculation

          k = 0.0000 0.0000 0.0000 (   645 PWs)   bands (ev):

   -30.0339 -10.8042 -10.8042 -10.8042  -7.8295   7.6726   7.6726   7.6726
    12.2967  13.8723  13.8723  13.8723

     occupation numbers 
     1.0000   1.0000   1.0000   1.0000   1.0000   1.0000   1.0000   1.0000
     0.0000   0.0000   0.0000   0.0000

          k =-0.2490 0.2490-0.2490 (   640 PWs)   bands (ev):

   -29.9860 -11.3983 -10.8302 -10.8302  -7.1975   6.1561   7.0300   7.0300
    13.8903  14.4358  14.8103  14.8103

     occupation numbers 
     1.0000   1.0000   1.0000   1.0000   1.0000   1.0000   1.0000   1.0000
     0.0000   0.0000   0.0000   0.0000

          k = 0.4980-0.4980 0.4980 (   652 PWs)   bands (ev):

   -29.9375 -11.8573 -10.8559 -10.8559  -6.6948   5.0690   6.5031   6.5031
    14.6763  15.9614  15.9614  16.0699

     occupation numbers 
     1.0000   1.0000   1.0000   1.0000   1.0000   1.0000   1.0000   1.0000
     0.0000   0.0000   0.0000   0.0000

          k = 0.0000 0.4980 0.0000 (   649 PWs)   bands (ev):

   -29.9709 -11.2900 -10.9128 -10.9128  -7.3260   6.0145   7.3750   7.3750
    12.3718  14.1956  15.6751  15.6751

     occupation numbers 
     1.0000   1.0000   1.0000   1.0000   1.0000   1.0000   1.0000   1.0000
     0.0000   0.0000   0.0000   0.0000

          k = 0.7469-0.2490 0.7469 (   655 PWs)   bands (ev):

   -29.9233 -11.5463 -11.0484 -10.9394  -7.1141   5.8963   6.6036   6.8862
    13.0001  15.4579  16.4160  16.4661

     occupation numbers 
     1.0000   1.0000   1.0000   1.0000   1.0000   1.0000   1.0000   1.0000
     0.0000   0.0000   0.0000   0.0000

          k = 0.4980 0.0000 0.4980 (   656 PWs)   bands (ev):

   -29.9386 -11.5721 -11.0578 -10.8574  -6.9672   5.6336   6.5961   6.8332
    14.1264  14.8731  15.4613  15.9795

     occupation numbers 
     1.0000   1.0000   1.0000   1.0000   1.0000   1.0000   1.0000   1.0000
     0.0000   0.0000   0.0000   0.0000

          k = 0.0000-0.9959 0.0000 (   652 PWs)   bands (ev):

   -29.9089 -11.3767 -11.0211 -11.0211  -7.5929   6.3617   7.2945   7.2945
    11.3232  15.6276  16.4889  17.1178

     occupation numbers 
     1.0000   1.0000   1.0000   1.0000   1.0000   1.0000   1.0000   1.0000
     0.0000   0.0000   0.0000   0.0000

          k =-0.4980-0.9959 0.0000 (   648 PWs)   bands (ev):

   -29.9080 -11.2045 -11.2009 -11.2009  -7.2311   6.4109   6.6134   6.6134
    13.9528  13.9528  15.9720  17.1236

     occupation numbers 
     1.0000   1.0000   1.0000   1.0000   1.0000   1.0000   1.0000   1.0000
     0.0000   0.0000   0.0000   0.0000

     the Fermi energy is     8.4516 ev

!    total energy              =    -107.09740677 Ry
     Harris-Foulkes estimate   =    -107.09740677 Ry
     estimated scf accuracy    <          2.5E-09 Ry

     The total energy is the sum of the following terms:

     one-electron contribution =     -26.26614468 Ry
     hartree contribution      =      20.92465622 Ry
     xc contribution           =     -19.07313167 Ry
     ewald contribution        =     -82.68278663 Ry
     smearing contrib. (-TS)   =      -0.00000000 Ry

     convergence has been achieved in   9 iterations

     negative rho (up, down):  1.513E-04 0.000E+00

     Forces acting on atoms (cartesian axes, Ry/au):

     atom    1 type  1   force =     0.00000000    0.00000000   -0.00000000
     atom    2 type  2   force =     0.00000000    0.00000000    0.00000000
     The non-local contrib.  to forces
     atom    1 type  1   force =     0.00000000    0.00000000    0.00000000
     atom    2 type  2   force =     0.00000000    0.00000000    0.00000000
     The ionic contribution  to forces
     atom    1 type  1   force =     0.00000000   -0.00000000   -0.00000000
     atom    2 type  2   force =    -0.00000000    0.00000000    0.00000000
     The local contribution  to forces
     atom    1 type  1   force =     0.00000000   -0.00000000   -0.00000000
     atom    2 type  2   force =    -0.00000000    0.00000000   -0.00000000
     The core correction contribution to forces
     atom    1 type  1   force =     0.00000000   -0.00000000   -0.00000000
     atom    2 type  2   force =     0.00000000    0.00000000    0.00000000
     The Hubbard contrib.    to forces
     atom    1 type  1   force =     0.00000000    0.00000000    0.00000000
     atom    2 type  2   force =     0.00000000    0.00000000    0.00000000
     The SCF correction term to forces
     atom    1 type  1   force =     0.00000000   -0.00000000   -0.00000000
     atom    2 type  2   force =     0.00000000   -0.00000000   -0.00000000

     Total force =     0.000000     Total SCF correction =     0.000000


     Computing stress (Cartesian axis) and pressure


     negative rho (up, down):  1.513E-04 0.000E+00
          total   stress  (Ry/bohr**3)                   (kbar)     P=    0.18
   0.00000125   0.00000000   0.00000000          0.18      0.00      0.00
   0.00000000   0.00000125  -0.00000000          0.00      0.18     -0.00
   0.00000000  -0.00000000   0.00000125          0.00     -0.00      0.18

     kinetic stress (kbar)  13705.42     -0.00     -0.00
                               -0.00  13705.42      0.00
                               -0.00      0.00  13705.42

     local   stress (kbar)  -4851.82      0.00     -0.00
                                0.00  -4851.82     -0.00
                               -0.00     -0.00  -4851.82

     nonloc. stress (kbar)  11708.69      0.00     -0.00
                                0.00  11708.69      0.00
                               -0.00      0.00  11708.69

     hartree stress (kbar)   5405.32      0.00      0.00
                                0.00   5405.32      0.00
                                0.00      0.00   5405.32

     exc-cor stress (kbar)  -3304.35     -0.00      0.00
                               -0.00  -3304.35     -0.00
                                0.00     -0.00  -3304.35

     corecor stress (kbar)  -1304.19     -0.00     -0.00
                               -0.00  -1304.19      0.00
                               -0.00      0.00  -1304.19

     ewald   stress (kbar) -21358.88      0.00     -0.00
                                0.00 -21358.88     -0.00
                               -0.00     -0.00 -21358.88

     hubbard stress (kbar)      0.00      0.00      0.00
                                0.00      0.00      0.00
                                0.00      0.00      0.00

     london  stress (kbar)      0.00      0.00      0.00
                                0.00      0.00      0.00
                                0.00      0.00      0.00

     DFT-D3  stress (kbar)      0.00      0.00      0.00
                                0.00      0.00      0.00
                                0.00      0.00      0.00

     XDM     stress (kbar)      0.00      0.00      0.00
                                0.00      0.00      0.00
                                0.00      0.00      0.00

     dft-nl  stress (kbar)      0.00      0.00      0.00
                                0.00      0.00      0.00
                                0.00      0.00      0.00

     TS-vdW  stress (kbar)      0.00      0.00      0.00
                                0.00      0.00      0.00
                                0.00      0.00      0.00



     bfgs converged in   4 scf cycles and   3 bfgs steps
     (criteria: energy <  1.0E-04 Ry, force <  1.0E-03Ry/Bohr, cell <  5.0E-01kbar)

     End of BFGS Geometry Optimization

     Final enthalpy =    -107.0974067694 Ry
Begin final coordinates
     new unit-cell volume =    189.82040 a.u.^3 (    28.12848 Ang^3 )
     density =      3.31048 g/cm^3

CELL_PARAMETERS (alat=  9.08580325)
  -0.502043061  -0.000000000   0.502043061
   0.000000000   0.502043061   0.502043061
  -0.502043061   0.502043061   0.000000000

ATOMIC_POSITIONS (crystal)
Ca       0.000000000   0.000000000   0.000000000
O        0.500000000   0.500000000   0.500000000
End final coordinates



     Writing output data file CaO.save/

     A final scf calculation at the relaxed structure.
     The G-vectors are recalculated for the final unit cell
     Results may differ from those at the preceding step.
 
     Parallelization info
     --------------------
     sticks:   dense  smooth     PW     G-vecs:    dense   smooth      PW
     Min         114      49     15                 2256      650     117
     Max         115      50     16                 2259      652     121
     Sum         913     397    121                18053     5209     941
 


     bravais-lattice index     =            2
     lattice parameter (alat)  =       9.0858  a.u.
     unit-cell volume          =     189.8204 (a.u.)^3
     number of atoms/cell      =            2
     number of atomic types    =            2
     number of electrons       =        16.00
     number of Kohn-Sham states=           12
     kinetic-energy cutoff     =      35.0000  Ry
     charge density cutoff     =     315.0000  Ry
     convergence threshold     =      1.0E-08
     mixing beta               =       0.4000
     number of iterations used =            8  plain     mixing
     Exchange-correlation      = SLA PW PBE PBE ( 1  4  3  4 0 0)

     celldm(1)=   9.085803  celldm(2)=   0.000000  celldm(3)=   0.000000
     celldm(4)=   0.000000  celldm(5)=   0.000000  celldm(6)=   0.000000

     crystal axes: (cart. coord. in units of alat)
               a(1) = (  -0.502043  -0.000000   0.502043 )  
               a(2) = (   0.000000   0.502043   0.502043 )  
               a(3) = (  -0.502043   0.502043   0.000000 )  

     reciprocal axes: (cart. coord. in units 2 pi/alat)
               b(1) = ( -0.995931 -0.995931  0.995931 )  
               b(2) = (  0.995931  0.995931  0.995931 )  
               b(3) = ( -0.995931  0.995931 -0.995931 )  


     PseudoPot. # 1 for Ca read from file:
     ../pseudo/Ca.pbe-nsp-van.UPF
     MD5 check sum: cdab9c70410076c6adf7f3c9fd3601e0
     Pseudo is Ultrasoft + core correction, Zval = 10.0
     Generated by new atomic code, or converted to UPF format
     Using radial grid of  845 points,  6 beta functions with: 
                l(1) =   0
                l(2) =   0
                l(3) =   1
                l(4) =   1
                l(5) =   2
                l(6) =   2
     Q(r) pseudized with  6 coefficients,  rinner =    1.200   1.200   1.200
                                                       1.200   1.200

     PseudoPot. # 2 for O  read from file:
     ../pseudo/O.pbe-van_ak.UPF
     MD5 check sum: 572909515f9aa9498032b6eb5528d5f9
     Pseudo is Ultrasoft, Zval =  6.0
     Generated by new atomic code, or converted to UPF format
     Using radial grid of  737 points,  4 beta functions with: 
                l(1) =   0
                l(2) =   0
                l(3) =   1
                l(4) =   1
     Q(r) pseudized with  8 coefficients,  rinner =    0.800   0.800   0.800


     atomic species   valence    mass     pseudopotential
        Ca            10.00    40.07800     Ca( 1.00)
        O              6.00    15.99940     O ( 1.00)

     48 Sym. Ops., with inversion, found


                                    s                        frac. trans.

      isym =  1     identity                                     

 cryst.   s( 1) = (     1          0          0      )
                  (     0          1          0      )
                  (     0          0          1      )

 cart.    s( 1) = (  1.0000000  0.0000000  0.0000000 )
                  (  0.0000000  1.0000000  0.0000000 )
                  (  0.0000000  0.0000000  1.0000000 )


      isym =  2     180 deg rotation - cart. axis [0,0,1]        

 cryst.   s( 2) = (     0          1         -1      )
                  (     1          0         -1      )
                  (     0          0         -1      )

 cart.    s( 2) = ( -1.0000000  0.0000000  0.0000000 )
                  (  0.0000000 -1.0000000  0.0000000 )
                  (  0.0000000  0.0000000  1.0000000 )


      isym =  3     180 deg rotation - cart. axis [0,1,0]        

 cryst.   s( 3) = (    -1          0          0      )
                  (    -1          0          1      )
                  (    -1          1          0      )

 cart.    s( 3) = ( -1.0000000  0.0000000  0.0000000 )
                  (  0.0000000  1.0000000  0.0000000 )
[...]
                  (     0          1         -1      )
                  (     0          1          0      )

 cart.    s(48) = (  0.0000000  0.0000000  1.0000000 )
                  ( -1.0000000  0.0000000  0.0000000 )
                  (  0.0000000  1.0000000  0.0000000 )


     point group O_h (m-3m) 
     there are 10 classes
     the character table:

       E     8C3   3C2   6C4   6C2'  i     8S6   3s_h  6S4   6s_d 
A_1g   1.00  1.00  1.00  1.00  1.00  1.00  1.00  1.00  1.00  1.00
A_2g   1.00  1.00  1.00 -1.00 -1.00  1.00  1.00  1.00 -1.00 -1.00
E_g    2.00 -1.00  2.00  0.00  0.00  2.00 -1.00  2.00  0.00  0.00
T_1g   3.00  0.00 -1.00  1.00 -1.00  3.00  0.00 -1.00  1.00 -1.00
T_2g   3.00  0.00 -1.00 -1.00  1.00  3.00  0.00 -1.00 -1.00  1.00
A_1u   1.00  1.00  1.00  1.00  1.00 -1.00 -1.00 -1.00 -1.00 -1.00
A_2u   1.00  1.00  1.00 -1.00 -1.00 -1.00 -1.00 -1.00  1.00  1.00
E_u    2.00 -1.00  2.00  0.00  0.00 -2.00  1.00 -2.00  0.00  0.00
T_1u   3.00  0.00 -1.00  1.00 -1.00 -3.00  0.00  1.00 -1.00  1.00
T_2u   3.00  0.00 -1.00 -1.00  1.00 -3.00  0.00  1.00  1.00 -1.00

     the symmetry operations in each class and the name of the first element:

     E        1
          identity                                               
     8C3     17   19   20   18   24   21   22   23
          120 deg rotation - cart. axis [-1,-1,-1]               
     3C2      2    4    3
          180 deg rotation - cart. axis [0,0,1]                  
     6C4      7    8   15   16   12   11
           90 deg rotation - cart. axis [0,0,-1]                 
     6C2'     5    6   14   13   10    9
          180 deg rotation - cart. axis [1,1,0]                  
     i       25
          inversion                                              
     8S6     41   43   44   42   48   45   46   47
          inv. 120 deg rotation - cart. axis [-1,-1,-1]          
     3s_h    26   28   27
          inv. 180 deg rotation - cart. axis [0,0,1]             
     6S4     31   32   39   40   36   35
          inv.  90 deg rotation - cart. axis [0,0,-1]            
     6s_d    29   30   38   37   34   33
          inv. 180 deg rotation - cart. axis [1,1,0]             

   Cartesian axes

     site n.     atom                  positions (alat units)
         1           Ca  tau(   1) = (   0.0000000   0.0000000   0.0000000  )
         2           O   tau(   2) = (  -0.5020431   0.5020431   0.5020431  )

   Crystallographic axes

     site n.     atom                  positions (cryst. coord.)
         1           Ca  tau(   1) = (  0.0000000  0.0000000  0.0000000  )
         2           O   tau(   2) = (  0.5000000  0.5000000  0.5000000  )

     number of k points=     8  gaussian smearing, width (Ry)=  0.0100
                       cart. coord. in units 2pi/alat
        k(    1) = (   0.0000000   0.0000000   0.0000000), wk =   0.0312500
        k(    2) = (  -0.2489826   0.2489826  -0.2489826), wk =   0.2500000
        k(    3) = (   0.4979653  -0.4979653   0.4979653), wk =   0.1250000
        k(    4) = (   0.0000000   0.4979653   0.0000000), wk =   0.1875000
        k(    5) = (   0.7469479  -0.2489826   0.7469479), wk =   0.7500000
        k(    6) = (   0.4979653   0.0000000   0.4979653), wk =   0.3750000
        k(    7) = (   0.0000000  -0.9959305   0.0000000), wk =   0.0937500
        k(    8) = (  -0.4979653  -0.9959305   0.0000000), wk =   0.1875000

                       cryst. coord.
        k(    1) = (   0.0000000   0.0000000   0.0000000), wk =   0.0312500
        k(    2) = (   0.0000000   0.0000000   0.2500000), wk =   0.2500000
        k(    3) = (   0.0000000   0.0000000  -0.5000000), wk =   0.1250000
        k(    4) = (  -0.0000000   0.2500000   0.2500000), wk =   0.1875000
        k(    5) = (   0.0000000   0.2500000  -0.5000000), wk =   0.7500000
        k(    6) = (   0.0000000   0.2500000  -0.2500000), wk =   0.3750000
        k(    7) = (   0.0000000  -0.5000000  -0.5000000), wk =   0.0937500
        k(    8) = (   0.2500000  -0.5000000  -0.2500000), wk =   0.1875000

     Dense  grid:    18053 G-vectors     FFT dimensions: (  40,  40,  40)

     Smooth grid:     5209 G-vectors     FFT dimensions: (  25,  25,  25)

     Dynamical RAM for                 wfc:       0.02 MB

     Dynamical RAM for     wfc (w. buffer):       0.14 MB

     Dynamical RAM for           str. fact:       0.07 MB

     Dynamical RAM for           local pot:       0.03 MB

     Dynamical RAM for          nlocal pot:       0.03 MB

     Dynamical RAM for                qrad:       8.24 MB

     Dynamical RAM for          rho,v,vnew:       0.29 MB

     Dynamical RAM for               rhoin:       0.10 MB

     Dynamical RAM for            rho*nmix:       0.55 MB

     Dynamical RAM for           G-vectors:       0.13 MB

     Dynamical RAM for          h,s,v(r/c):       0.11 MB

     Dynamical RAM for          <psi|beta>:       0.00 MB

     Dynamical RAM for                 psi:       0.06 MB

     Dynamical RAM for                hpsi:       0.06 MB

     Dynamical RAM for                spsi:       0.06 MB

     Dynamical RAM for      wfcinit/wfcrot:       0.04 MB

     Dynamical RAM for           addusdens:       6.44 MB

     Dynamical RAM for          addusforce:       6.57 MB

     Dynamical RAM for         addusstress:       6.92 MB

     Estimated static dynamical RAM per process >       9.98 MB

     Estimated max dynamical RAM per process >      16.91 MB

     Estimated total dynamical RAM >     135.24 MB

     Check: negative core charge=   -0.000004

     Initial potential from superposition of free atoms

     starting charge   15.99454, renormalised to   16.00000

     negative rho (up, down):  1.543E-04 0.000E+00
     Starting wfcs are   14 randomized atomic wfcs

     total cpu time spent up to now is       11.2 secs

     Self-consistent Calculation

     iteration #  1     ecut=    35.00 Ry     beta= 0.40
     Davidson diagonalization with overlap
     ethr =  1.00E-06,  avg # of iterations =  7.9

     negative rho (up, down):  1.586E-04 0.000E+00

     total cpu time spent up to now is       11.5 secs

     total energy              =    -106.96390241 Ry
     Harris-Foulkes estimate   =    -107.21072815 Ry
     estimated scf accuracy    <       0.47345436 Ry

     iteration #  2     ecut=    35.00 Ry     beta= 0.40
     Davidson diagonalization with overlap
     ethr =  2.96E-03,  avg # of iterations =  2.8

     negative rho (up, down):  1.536E-04 0.000E+00

     total cpu time spent up to now is       11.7 secs

     total energy              =    -107.07898425 Ry
     Harris-Foulkes estimate   =    -107.11415624 Ry
     estimated scf accuracy    <       0.09454417 Ry

     iteration #  3     ecut=    35.00 Ry     beta= 0.40
     Davidson diagonalization with overlap
     ethr =  5.91E-04,  avg # of iterations =  2.6

     negative rho (up, down):  1.509E-04 0.000E+00

     total cpu time spent up to now is       11.8 secs

     total energy              =    -107.09680254 Ry
     Harris-Foulkes estimate   =    -107.09631857 Ry
     estimated scf accuracy    <       0.00642400 Ry

     iteration #  4     ecut=    35.00 Ry     beta= 0.40
     Davidson diagonalization with overlap
     ethr =  4.01E-05,  avg # of iterations =  2.9

     negative rho (up, down):  1.511E-04 0.000E+00

     total cpu time spent up to now is       12.0 secs

     total energy              =    -107.09754271 Ry
     Harris-Foulkes estimate   =    -107.09757918 Ry
     estimated scf accuracy    <       0.00009328 Ry

     iteration #  5     ecut=    35.00 Ry     beta= 0.40
     Davidson diagonalization with overlap
     ethr =  5.83E-07,  avg # of iterations =  3.3

     negative rho (up, down):  1.513E-04 0.000E+00

     total cpu time spent up to now is       12.1 secs

     total energy              =    -107.09758121 Ry
     Harris-Foulkes estimate   =    -107.09756871 Ry
     estimated scf accuracy    <       0.00001016 Ry

     iteration #  6     ecut=    35.00 Ry     beta= 0.40
     Davidson diagonalization with overlap
     ethr =  6.35E-08,  avg # of iterations =  2.8

     negative rho (up, down):  1.513E-04 0.000E+00

     total cpu time spent up to now is       12.3 secs

     total energy              =    -107.09758465 Ry
     Harris-Foulkes estimate   =    -107.09758689 Ry
     estimated scf accuracy    <       0.00000674 Ry

     iteration #  7     ecut=    35.00 Ry     beta= 0.40
     Davidson diagonalization with overlap
     ethr =  4.21E-08,  avg # of iterations =  2.6

     negative rho (up, down):  1.512E-04 0.000E+00

     total cpu time spent up to now is       12.4 secs

     total energy              =    -107.09758640 Ry
     Harris-Foulkes estimate   =    -107.09758626 Ry
     estimated scf accuracy    <       0.00000030 Ry

     iteration #  8     ecut=    35.00 Ry     beta= 0.40
     Davidson diagonalization with overlap
     ethr =  1.87E-09,  avg # of iterations =  2.9

     negative rho (up, down):  1.512E-04 0.000E+00

     total cpu time spent up to now is       12.5 secs

     total energy              =    -107.09758661 Ry
     Harris-Foulkes estimate   =    -107.09758652 Ry
     estimated scf accuracy    <       0.00000002 Ry

     iteration #  9     ecut=    35.00 Ry     beta= 0.40
     Davidson diagonalization with overlap
     ethr =  1.01E-10,  avg # of iterations =  2.8

     negative rho (up, down):  1.512E-04 0.000E+00

     total cpu time spent up to now is       12.7 secs

     End of self-consistent calculation

          k = 0.0000 0.0000 0.0000 (   645 PWs)   bands (ev):

   -30.0336 -10.8039 -10.8039 -10.8039  -7.8293   7.6726   7.6726   7.6726
    12.2969  13.8725  13.8725  13.8725

     occupation numbers 
     1.0000   1.0000   1.0000   1.0000   1.0000   1.0000   1.0000   1.0000
     0.0000   0.0000   0.0000   0.0000

          k =-0.2490 0.2490-0.2490 (   655 PWs)   bands (ev):

   -29.9857 -11.3980 -10.8300 -10.8300  -7.1974   6.1559   7.0297   7.0297
    13.8902  14.4357  14.8103  14.8103

     occupation numbers 
     1.0000   1.0000   1.0000   1.0000   1.0000   1.0000   1.0000   1.0000
     0.0000   0.0000   0.0000   0.0000

          k = 0.4980-0.4980 0.4980 (   652 PWs)   bands (ev):

   -29.9371 -11.8570 -10.8555 -10.8555  -6.6946   5.0691   6.5032   6.5032
    14.6765  15.9616  15.9616  16.0701

     occupation numbers 
     1.0000   1.0000   1.0000   1.0000   1.0000   1.0000   1.0000   1.0000
     0.0000   0.0000   0.0000   0.0000

          k = 0.0000 0.4980 0.0000 (   649 PWs)   bands (ev):

   -29.9705 -11.2896 -10.9125 -10.9125  -7.3258   6.0146   7.3751   7.3751
    12.3720  14.1958  15.6753  15.6753

     occupation numbers 
     1.0000   1.0000   1.0000   1.0000   1.0000   1.0000   1.0000   1.0000
     0.0000   0.0000   0.0000   0.0000

          k = 0.7469-0.2490 0.7469 (   672 PWs)   bands (ev):

   -29.9229 -11.5461 -11.0481 -10.9392  -7.1140   5.8962   6.6033   6.8859
    12.9998  15.4580  16.4158  16.4660

     occupation numbers 
     1.0000   1.0000   1.0000   1.0000   1.0000   1.0000   1.0000   1.0000
     0.0000   0.0000   0.0000   0.0000

          k = 0.4980 0.0000 0.4980 (   670 PWs)   bands (ev):

   -29.9382 -11.5718 -11.0575 -10.8571  -6.9671   5.6334   6.5957   6.8331
    14.1262  14.8730  15.4615  15.9794

     occupation numbers 
     1.0000   1.0000   1.0000   1.0000   1.0000   1.0000   1.0000   1.0000
     0.0000   0.0000   0.0000   0.0000

          k = 0.0000-0.9959 0.0000 (   652 PWs)   bands (ev):

   -29.9085 -11.3764 -11.0208 -11.0208  -7.5926   6.3619   7.2946   7.2946
    11.3234  15.6279  16.4892  17.1180

     occupation numbers 
     1.0000   1.0000   1.0000   1.0000   1.0000   1.0000   1.0000   1.0000
     0.0000   0.0000   0.0000   0.0000

          k =-0.4980-0.9959 0.0000 (   684 PWs)   bands (ev):

   -29.9076 -11.2044 -11.2007 -11.2007  -7.2310   6.4102   6.6130   6.6130
    13.9524  13.9524  15.9716  17.1227

     occupation numbers 
     1.0000   1.0000   1.0000   1.0000   1.0000   1.0000   1.0000   1.0000
     0.0000   0.0000   0.0000   0.0000

     the Fermi energy is     8.4510 ev

!    total energy              =    -107.09758667 Ry
     Harris-Foulkes estimate   =    -107.09758662 Ry
     estimated scf accuracy    <          9.0E-10 Ry

     The total energy is the sum of the following terms:

     one-electron contribution =     -26.26639760 Ry
     hartree contribution      =      20.92480374 Ry
     xc contribution           =     -19.07320618 Ry
     ewald contribution        =     -82.68278663 Ry
     smearing contrib. (-TS)   =      -0.00000000 Ry

     convergence has been achieved in   9 iterations

     negative rho (up, down):  1.512E-04 0.000E+00

     Forces acting on atoms (cartesian axes, Ry/au):

     atom    1 type  1   force =     0.00000000    0.00000000    0.00000000
     atom    2 type  2   force =     0.00000000    0.00000000    0.00000000
     The non-local contrib.  to forces
     atom    1 type  1   force =     0.00000000    0.00000000    0.00000000
     atom    2 type  2   force =     0.00000000    0.00000000    0.00000000
     The ionic contribution  to forces
     atom    1 type  1   force =     0.00000000   -0.00000000   -0.00000000
     atom    2 type  2   force =    -0.00000000    0.00000000    0.00000000
     The local contribution  to forces
     atom    1 type  1   force =     0.00000000   -0.00000000   -0.00000000
     atom    2 type  2   force =    -0.00000000    0.00000000    0.00000000
     The core correction contribution to forces
     atom    1 type  1   force =     0.00000000   -0.00000000   -0.00000000
     atom    2 type  2   force =     0.00000000    0.00000000    0.00000000
     The Hubbard contrib.    to forces
     atom    1 type  1   force =     0.00000000    0.00000000    0.00000000
     atom    2 type  2   force =     0.00000000    0.00000000    0.00000000
     The SCF correction term to forces
     atom    1 type  1   force =     0.00000000    0.00000000   -0.00000000
     atom    2 type  2   force =    -0.00000000    0.00000000   -0.00000000

     Total force =     0.000000     Total SCF correction =     0.000000


     Computing stress (Cartesian axis) and pressure


     negative rho (up, down):  1.512E-04 0.000E+00
          total   stress  (Ry/bohr**3)                   (kbar)     P=   -1.14
  -0.00000775   0.00000000   0.00000000         -1.14      0.00      0.00
   0.00000000  -0.00000775  -0.00000000          0.00     -1.14     -0.00
   0.00000000  -0.00000000  -0.00000775          0.00     -0.00     -1.14

     kinetic stress (kbar)  13706.73     -0.00      0.00
                                0.00  13706.73      0.00
                                0.00      0.00  13706.73

     local   stress (kbar)  -4852.49      0.00      0.00
                                0.00  -4852.49     -0.00
                                0.00     -0.00  -4852.49

     nonloc. stress (kbar)  11706.68      0.00      0.00
                                0.00  11706.68     -0.00
                                0.00     -0.00  11706.68

     hartree stress (kbar)   5405.36     -0.00      0.00
                               -0.00   5405.36     -0.00
                                0.00     -0.00   5405.36

     exc-cor stress (kbar)  -3304.35     -0.00      0.00
                               -0.00  -3304.35     -0.00
                                0.00     -0.00  -3304.35

     corecor stress (kbar)  -1304.20      0.00      0.00
                                0.00  -1304.20     -0.00
                                0.00     -0.00  -1304.20

     ewald   stress (kbar) -21358.88     -0.00      0.00
                               -0.00 -21358.88      0.00
                                0.00      0.00 -21358.88

     hubbard stress (kbar)      0.00      0.00      0.00
                                0.00      0.00      0.00
                                0.00      0.00      0.00

     london  stress (kbar)      0.00      0.00      0.00
                                0.00      0.00      0.00
                                0.00      0.00      0.00

     DFT-D3  stress (kbar)      0.00      0.00      0.00
                                0.00      0.00      0.00
                                0.00      0.00      0.00

     XDM     stress (kbar)      0.00      0.00      0.00
                                0.00      0.00      0.00
                                0.00      0.00      0.00

     dft-nl  stress (kbar)      0.00      0.00      0.00
                                0.00      0.00      0.00
                                0.00      0.00      0.00

     TS-vdW  stress (kbar)      0.00      0.00      0.00
                                0.00      0.00      0.00
                                0.00      0.00      0.00



     Writing output data file CaO.save/
 
     init_run     :      0.54s CPU      0.63s WALL (       2 calls)
     electrons    :      4.38s CPU      6.58s WALL (       5 calls)
     update_pot   :      0.59s CPU      0.61s WALL (       3 calls)
     forces       :      0.47s CPU      0.49s WALL (       5 calls)
     stress       :      1.79s CPU      1.84s WALL (       5 calls)

     Called by init_run:
     wfcinit      :      0.05s CPU      0.09s WALL (       2 calls)
     wfcinit:atom :      0.00s CPU      0.00s WALL (      16 calls)
     wfcinit:wfcr :      0.05s CPU      0.08s WALL (      16 calls)
     potinit      :      0.10s CPU      0.09s WALL (       2 calls)
     hinit0       :      0.37s CPU      0.39s WALL (       2 calls)

     Called by electrons:
     c_bands      :      2.87s CPU      4.50s WALL (      43 calls)
     sum_band     :      0.84s CPU      1.06s WALL (      43 calls)
     v_of_rho     :      0.32s CPU      0.37s WALL (      48 calls)
     v_h          :      0.03s CPU      0.02s WALL (      48 calls)
     v_xc         :      0.34s CPU      0.41s WALL (      58 calls)
     newd         :      0.29s CPU      0.35s WALL (      48 calls)
     mix_rho      :      0.06s CPU      0.04s WALL (      43 calls)

     Called by c_bands:
     init_us_2    :      0.02s CPU      0.05s WALL (     784 calls)
     cegterg      :      2.80s CPU      4.10s WALL (     344 calls)

     Called by sum_band:
     sum_band:bec :      0.01s CPU      0.01s WALL (     344 calls)
     addusdens    :      0.31s CPU      0.32s WALL (      43 calls)

     Called by *egterg:
     h_psi        :      2.26s CPU      3.23s WALL (    1281 calls)
     s_psi        :      0.04s CPU      0.04s WALL (    1281 calls)
     g_psi        :      0.01s CPU      0.02s WALL (     921 calls)
     cdiaghg      :      0.17s CPU      0.39s WALL (    1241 calls)
     cegterg:over :      0.14s CPU      0.15s WALL (     921 calls)
     cegterg:upda :      0.00s CPU      0.03s WALL (     921 calls)
     cegterg:last :      0.00s CPU      0.01s WALL (     352 calls)

     Called by h_psi:
     h_psi:pot    :      2.24s CPU      3.19s WALL (    1281 calls)
     h_psi:calbec :      0.08s CPU      0.14s WALL (    1281 calls)
     vloc_psi     :      2.06s CPU      2.93s WALL (    1281 calls)
     add_vuspsi   :      0.02s CPU      0.05s WALL (    1281 calls)

     General routines
     calbec       :      0.07s CPU      0.16s WALL (    1825 calls)
     fft          :      0.27s CPU      0.27s WALL (     742 calls)
     ffts         :      0.02s CPU      0.02s WALL (      91 calls)
     fftw         :      2.13s CPU      3.04s WALL (   25860 calls)
     interpolate  :      0.04s CPU      0.03s WALL (      48 calls)
 
     Parallel routines
     fft_scatt_xy :      0.30s CPU      0.45s WALL (   26693 calls)
     fft_scatt_yz :      0.88s CPU      1.30s WALL (   26693 calls)
 
     PWSCF        :      9.81s CPU     14.46s WALL

 
   This run was terminated on:   6: 1:45  13Mar2020            

=------------------------------------------------------------------------------=
   JOB DONE.
=------------------------------------------------------------------------------=
