
     Program PWSCF v.6.3MaX starts on  1Apr2021 at 17:14:28 

     This program is part of the open-source Quantum ESPRESSO suite
     for quantum simulation of materials; please cite
         "P. Giannozzi et al., J. Phys.:Condens. Matter 21 395502 (2009);
         "P. Giannozzi et al., J. Phys.:Condens. Matter 29 465901 (2017);
          URL http://www.quantum-espresso.org", 
     in publications or presentations arising from this work. More details at
     http://www.quantum-espresso.org/quote

     Serial version
     Waiting for input...
     Reading input from standard input

     Current dimensions of program PWSCF are:
     Max number of different atomic species (ntypx) = 10
     Max number of k-points (npk) =  40000
     Max angular momentum in pseudopotentials (lmaxx) =  3
 
     G-vector sticks info
     --------------------
     sticks:   dense  smooth     PW     G-vecs:    dense   smooth      PW
     Sum        1159     511    163                26469     7799    1411
 


     bravais-lattice index     =            2
     lattice parameter (alat)  =      10.3935  a.u.
     unit-cell volume          =     280.6885 (a.u.)^3
     number of atoms/cell      =            1
     number of atomic types    =            1
     number of electrons       =        10.00
     number of Kohn-Sham states=            9
     kinetic-energy cutoff     =      35.0000  Ry
     charge density cutoff     =     315.0000  Ry
     convergence threshold     =      1.0E-06
     mixing beta               =       0.4000
     number of iterations used =            8  plain     mixing
     Exchange-correlation      = SLA PW PBE PBE ( 1  4  3  4 0 0)
     nstep                     =          100


     celldm(1)=  10.393494  celldm(2)=   0.000000  celldm(3)=   0.000000
     celldm(4)=   0.000000  celldm(5)=   0.000000  celldm(6)=   0.000000

     crystal axes: (cart. coord. in units of alat)
               a(1) = (  -0.500000   0.000000   0.500000 )  
               a(2) = (   0.000000   0.500000   0.500000 )  
               a(3) = (  -0.500000   0.500000   0.000000 )  

     reciprocal axes: (cart. coord. in units 2 pi/alat)
               b(1) = ( -1.000000 -1.000000  1.000000 )  
               b(2) = (  1.000000  1.000000  1.000000 )  
               b(3) = ( -1.000000  1.000000 -1.000000 )  


     PseudoPot. # 1 for Ca read from file:
     ../pseudo/Ca.pbe-nsp-van.UPF
     MD5 check sum: cdab9c70410076c6adf7f3c9fd3601e0
     Pseudo is Ultrasoft + core correction, Zval = 10.0
     Generated by new atomic code, or converted to UPF format
     Using radial grid of  845 points,  6 beta functions with: 
                l(1) =   0
                l(2) =   0
                l(3) =   1
                l(4) =   1
                l(5) =   2
                l(6) =   2
     Q(r) pseudized with  6 coefficients,  rinner =    1.200   1.200   1.200
                                                       1.200   1.200

     atomic species   valence    mass     pseudopotential
        Ca            10.00    40.07800     Ca( 1.00)

     48 Sym. Ops., with inversion, found


                                    s                        frac. trans.

      isym =  1     identity                                     

 cryst.   s( 1) = (     1          0          0      )
                  (     0          1          0      )
                  (     0          0          1      )

 cart.    s( 1) = (  1.0000000  0.0000000  0.0000000 )
                  (  0.0000000  1.0000000  0.0000000 )
                  (  0.0000000  0.0000000  1.0000000 )


      isym =  2     180 deg rotation - cart. axis [0,0,1]        

 cryst.   s( 2) = (     0          1         -1      )
                  (     1          0         -1      )
                  (     0          0         -1      )

 cart.    s( 2) = ( -1.0000000  0.0000000  0.0000000 )
                  (  0.0000000 -1.0000000  0.0000000 )
                  (  0.0000000  0.0000000  1.0000000 )


      isym =  3     180 deg rotation - cart. axis [0,1,0]        

 cryst.   s( 3) = (    -1          0          0      )
                  (    -1          0          1      )
                  (    -1          1          0      )

 cart.    s( 3) = ( -1.0000000  0.0000000  0.0000000 )
                  (  0.0000000  1.0000000  0.0000000 )
                  (  0.0000000  0.0000000 -1.0000000 )


      isym =  4     180 deg rotation - cart. axis [1,0,0]        

 cryst.   s( 4) = (     0         -1          1      )
                  (     0         -1          0      )
                  (     1         -1          0      )

 cart.    s( 4) = (  1.0000000  0.0000000  0.0000000 )
                  (  0.0000000 -1.0000000  0.0000000 )
                  (  0.0000000  0.0000000 -1.0000000 )


      isym =  5     180 deg rotation - cart. axis [1,1,0]        

 cryst.   s( 5) = (     0         -1          0      )
                  (    -1          0          0      )
                  (     0          0         -1      )

 cart.    s( 5) = (  0.0000000  1.0000000  0.0000000 )
                  (  1.0000000  0.0000000  0.0000000 )
                  (  0.0000000  0.0000000 -1.0000000 )


      isym =  6     180 deg rotation - cart. axis [1,-1,0]       

 cryst.   s( 6) = (    -1          0          1      )
                  (     0         -1          1      )
                  (     0          0          1      )

 cart.    s( 6) = (  0.0000000 -1.0000000  0.0000000 )
                  ( -1.0000000  0.0000000  0.0000000 )
                  (  0.0000000  0.0000000 -1.0000000 )


      isym =  7      90 deg rotation - cart. axis [0,0,-1]       

 cryst.   s( 7) = (     0          1          0      )
                  (     0          1         -1      )
                  (    -1          1          0      )

 cart.    s( 7) = (  0.0000000  1.0000000  0.0000000 )
                  ( -1.0000000  0.0000000  0.0000000 )
                  (  0.0000000  0.0000000  1.0000000 )


      isym =  8      90 deg rotation - cart. axis [0,0,1]        

 cryst.   s( 8) = (     1          0         -1      )
                  (     1          0          0      )
                  (     1         -1          0      )

 cart.    s( 8) = (  0.0000000 -1.0000000  0.0000000 )
                  (  1.0000000  0.0000000  0.0000000 )
                  (  0.0000000  0.0000000  1.0000000 )


      isym =  9     180 deg rotation - cart. axis [1,0,1]        

 cryst.   s( 9) = (    -1          0          0      )
                  (     0          0         -1      )
                  (     0         -1          0      )

 cart.    s( 9) = (  0.0000000  0.0000000  1.0000000 )
                  (  0.0000000 -1.0000000  0.0000000 )
                  (  1.0000000  0.0000000  0.0000000 )


      isym = 10     180 deg rotation - cart. axis [-1,0,1]       

 cryst.   s(10) = (     1          0          0      )
                  (     1         -1          0      )
                  (     1          0         -1      )

 cart.    s(10) = (  0.0000000  0.0000000 -1.0000000 )
                  (  0.0000000 -1.0000000  0.0000000 )
                  ( -1.0000000  0.0000000  0.0000000 )


      isym = 11      90 deg rotation - cart. axis [0,1,0]        

 cryst.   s(11) = (     0          1         -1      )
                  (    -1          1          0      )
                  (     0          1          0      )

 cart.    s(11) = (  0.0000000  0.0000000  1.0000000 )
                  (  0.0000000  1.0000000  0.0000000 )
                  ( -1.0000000  0.0000000  0.0000000 )


      isym = 12      90 deg rotation - cart. axis [0,-1,0]       

 cryst.   s(12) = (     0         -1          1      )
                  (     0          0          1      )
                  (    -1          0          1      )

 cart.    s(12) = (  0.0000000  0.0000000 -1.0000000 )
                  (  0.0000000  1.0000000  0.0000000 )
                  (  1.0000000  0.0000000  0.0000000 )


      isym = 13     180 deg rotation - cart. axis [0,1,1]        

 cryst.   s(13) = (    -1          1          0      )
                  (     0          1          0      )
                  (     0          1         -1      )

 cart.    s(13) = ( -1.0000000  0.0000000  0.0000000 )
                  (  0.0000000  0.0000000  1.0000000 )
                  (  0.0000000  1.0000000  0.0000000 )


      isym = 14     180 deg rotation - cart. axis [0,1,-1]       

 cryst.   s(14) = (     0          0         -1      )
                  (     0         -1          0      )
                  (    -1          0          0      )

 cart.    s(14) = ( -1.0000000  0.0000000  0.0000000 )
                  (  0.0000000  0.0000000 -1.0000000 )
                  (  0.0000000 -1.0000000  0.0000000 )


      isym = 15      90 deg rotation - cart. axis [-1,0,0]       

 cryst.   s(15) = (     0          0          1      )
                  (    -1          0          1      )
                  (     0         -1          1      )

 cart.    s(15) = (  1.0000000  0.0000000  0.0000000 )
                  (  0.0000000  0.0000000  1.0000000 )
                  (  0.0000000 -1.0000000  0.0000000 )


      isym = 16      90 deg rotation - cart. axis [1,0,0]        

 cryst.   s(16) = (     1         -1          0      )
                  (     1          0         -1      )
                  (     1          0          0      )

 cart.    s(16) = (  1.0000000  0.0000000  0.0000000 )
                  (  0.0000000  0.0000000 -1.0000000 )
                  (  0.0000000  1.0000000  0.0000000 )


      isym = 17     120 deg rotation - cart. axis [-1,-1,-1]     

 cryst.   s(17) = (    -1          0          1      )
                  (    -1          1          0      )
                  (    -1          0          0      )

 cart.    s(17) = (  0.0000000  1.0000000  0.0000000 )
                  (  0.0000000  0.0000000  1.0000000 )
                  (  1.0000000  0.0000000  0.0000000 )


      isym = 18     120 deg rotation - cart. axis [-1,1,1]       

 cryst.   s(18) = (     0          1          0      )
                  (     0          0          1      )
                  (     1          0          0      )

 cart.    s(18) = (  0.0000000 -1.0000000  0.0000000 )
                  (  0.0000000  0.0000000  1.0000000 )
                  ( -1.0000000  0.0000000  0.0000000 )


      isym = 19     120 deg rotation - cart. axis [1,1,-1]       

 cryst.   s(19) = (     1          0         -1      )
                  (     0          0         -1      )
                  (     0          1         -1      )

 cart.    s(19) = (  0.0000000  1.0000000  0.0000000 )
                  (  0.0000000  0.0000000 -1.0000000 )
                  ( -1.0000000  0.0000000  0.0000000 )


      isym = 20     120 deg rotation - cart. axis [1,-1,1]       

 cryst.   s(20) = (     0         -1          0      )
                  (     1         -1          0      )
                  (     0         -1          1      )

 cart.    s(20) = (  0.0000000 -1.0000000  0.0000000 )
                  (  0.0000000  0.0000000 -1.0000000 )
                  (  1.0000000  0.0000000  0.0000000 )


      isym = 21     120 deg rotation - cart. axis [1,1,1]        

 cryst.   s(21) = (     0          0         -1      )
                  (     0          1         -1      )
                  (     1          0         -1      )

 cart.    s(21) = (  0.0000000  0.0000000  1.0000000 )
                  (  1.0000000  0.0000000  0.0000000 )
                  (  0.0000000  1.0000000  0.0000000 )


      isym = 22     120 deg rotation - cart. axis [-1,1,-1]      

 cryst.   s(22) = (    -1          1          0      )
                  (    -1          0          0      )
                  (    -1          0          1      )

 cart.    s(22) = (  0.0000000  0.0000000  1.0000000 )
                  ( -1.0000000  0.0000000  0.0000000 )
                  (  0.0000000 -1.0000000  0.0000000 )


      isym = 23     120 deg rotation - cart. axis [1,-1,-1]      

 cryst.   s(23) = (     0          0          1      )
                  (     1          0          0      )
                  (     0          1          0      )

 cart.    s(23) = (  0.0000000  0.0000000 -1.0000000 )
                  ( -1.0000000  0.0000000  0.0000000 )
                  (  0.0000000  1.0000000  0.0000000 )


      isym = 24     120 deg rotation - cart. axis [-1,-1,1]      

 cryst.   s(24) = (     1         -1          0      )
                  (     0         -1          1      )
                  (     0         -1          0      )

 cart.    s(24) = (  0.0000000  0.0000000 -1.0000000 )
                  (  1.0000000  0.0000000  0.0000000 )
                  (  0.0000000 -1.0000000  0.0000000 )


      isym = 25     inversion                                    

 cryst.   s(25) = (    -1          0          0      )
                  (     0         -1          0      )
                  (     0          0         -1      )

 cart.    s(25) = ( -1.0000000  0.0000000  0.0000000 )
                  (  0.0000000 -1.0000000  0.0000000 )
                  (  0.0000000  0.0000000 -1.0000000 )


      isym = 26     inv. 180 deg rotation - cart. axis [0,0,1]   

 cryst.   s(26) = (     0         -1          1      )
                  (    -1          0          1      )
                  (     0          0          1      )

 cart.    s(26) = (  1.0000000  0.0000000  0.0000000 )
                  (  0.0000000  1.0000000  0.0000000 )
                  (  0.0000000  0.0000000 -1.0000000 )


      isym = 27     inv. 180 deg rotation - cart. axis [0,1,0]   

 cryst.   s(27) = (     1          0          0      )
                  (     1          0         -1      )
                  (     1         -1          0      )

 cart.    s(27) = (  1.0000000  0.0000000  0.0000000 )
                  (  0.0000000 -1.0000000  0.0000000 )
                  (  0.0000000  0.0000000  1.0000000 )


      isym = 28     inv. 180 deg rotation - cart. axis [1,0,0]   

 cryst.   s(28) = (     0          1         -1      )
                  (     0          1          0      )
                  (    -1          1          0      )

 cart.    s(28) = ( -1.0000000  0.0000000  0.0000000 )
                  (  0.0000000  1.0000000  0.0000000 )
                  (  0.0000000  0.0000000  1.0000000 )


      isym = 29     inv. 180 deg rotation - cart. axis [1,1,0]   

 cryst.   s(29) = (     0          1          0      )
                  (     1          0          0      )
                  (     0          0          1      )

 cart.    s(29) = (  0.0000000 -1.0000000  0.0000000 )
                  ( -1.0000000  0.0000000  0.0000000 )
                  (  0.0000000  0.0000000  1.0000000 )


      isym = 30     inv. 180 deg rotation - cart. axis [1,-1,0]  

 cryst.   s(30) = (     1          0         -1      )
                  (     0          1         -1      )
                  (     0          0         -1      )

 cart.    s(30) = (  0.0000000  1.0000000  0.0000000 )
                  (  1.0000000  0.0000000  0.0000000 )
                  (  0.0000000  0.0000000  1.0000000 )


      isym = 31     inv.  90 deg rotation - cart. axis [0,0,-1]  

 cryst.   s(31) = (     0         -1          0      )
                  (     0         -1          1      )
                  (     1         -1          0      )

 cart.    s(31) = (  0.0000000 -1.0000000  0.0000000 )
                  (  1.0000000  0.0000000  0.0000000 )
                  (  0.0000000  0.0000000 -1.0000000 )


      isym = 32     inv.  90 deg rotation - cart. axis [0,0,1]   

 cryst.   s(32) = (    -1          0          1      )
                  (    -1          0          0      )
                  (    -1          1          0      )

 cart.    s(32) = (  0.0000000  1.0000000  0.0000000 )
                  ( -1.0000000  0.0000000  0.0000000 )
                  (  0.0000000  0.0000000 -1.0000000 )


      isym = 33     inv. 180 deg rotation - cart. axis [1,0,1]   

 cryst.   s(33) = (     1          0          0      )
                  (     0          0          1      )
                  (     0          1          0      )

 cart.    s(33) = (  0.0000000  0.0000000 -1.0000000 )
                  (  0.0000000  1.0000000  0.0000000 )
                  ( -1.0000000  0.0000000  0.0000000 )


      isym = 34     inv. 180 deg rotation - cart. axis [-1,0,1]  

 cryst.   s(34) = (    -1          0          0      )
                  (    -1          1          0      )
                  (    -1          0          1      )

 cart.    s(34) = (  0.0000000  0.0000000  1.0000000 )
                  (  0.0000000  1.0000000  0.0000000 )
                  (  1.0000000  0.0000000  0.0000000 )


      isym = 35     inv.  90 deg rotation - cart. axis [0,1,0]   

 cryst.   s(35) = (     0         -1          1      )
                  (     1         -1          0      )
                  (     0         -1          0      )

 cart.    s(35) = (  0.0000000  0.0000000 -1.0000000 )
                  (  0.0000000 -1.0000000  0.0000000 )
                  (  1.0000000  0.0000000  0.0000000 )


      isym = 36     inv.  90 deg rotation - cart. axis [0,-1,0]  

 cryst.   s(36) = (     0          1         -1      )
                  (     0          0         -1      )
                  (     1          0         -1      )

 cart.    s(36) = (  0.0000000  0.0000000  1.0000000 )
                  (  0.0000000 -1.0000000  0.0000000 )
                  ( -1.0000000  0.0000000  0.0000000 )


      isym = 37     inv. 180 deg rotation - cart. axis [0,1,1]   

 cryst.   s(37) = (     1         -1          0      )
                  (     0         -1          0      )
                  (     0         -1          1      )

 cart.    s(37) = (  1.0000000  0.0000000  0.0000000 )
                  (  0.0000000  0.0000000 -1.0000000 )
                  (  0.0000000 -1.0000000  0.0000000 )


      isym = 38     inv. 180 deg rotation - cart. axis [0,1,-1]  

 cryst.   s(38) = (     0          0          1      )
                  (     0          1          0      )
                  (     1          0          0      )

 cart.    s(38) = (  1.0000000  0.0000000  0.0000000 )
                  (  0.0000000  0.0000000  1.0000000 )
                  (  0.0000000  1.0000000  0.0000000 )


      isym = 39     inv.  90 deg rotation - cart. axis [-1,0,0]  

 cryst.   s(39) = (     0          0         -1      )
                  (     1          0         -1      )
                  (     0          1         -1      )

 cart.    s(39) = ( -1.0000000  0.0000000  0.0000000 )
                  (  0.0000000  0.0000000 -1.0000000 )
                  (  0.0000000  1.0000000  0.0000000 )


      isym = 40     inv.  90 deg rotation - cart. axis [1,0,0]   

 cryst.   s(40) = (    -1          1          0      )
                  (    -1          0          1      )
                  (    -1          0          0      )

 cart.    s(40) = ( -1.0000000  0.0000000  0.0000000 )
                  (  0.0000000  0.0000000  1.0000000 )
                  (  0.0000000 -1.0000000  0.0000000 )


      isym = 41     inv. 120 deg rotation - cart. axis [-1,-1,-1]

 cryst.   s(41) = (     1          0         -1      )
                  (     1         -1          0      )
                  (     1          0          0      )

 cart.    s(41) = (  0.0000000 -1.0000000  0.0000000 )
                  (  0.0000000  0.0000000 -1.0000000 )
                  ( -1.0000000  0.0000000  0.0000000 )


      isym = 42     inv. 120 deg rotation - cart. axis [-1,1,1]  

 cryst.   s(42) = (     0         -1          0      )
                  (     0          0         -1      )
                  (    -1          0          0      )

 cart.    s(42) = (  0.0000000  1.0000000  0.0000000 )
                  (  0.0000000  0.0000000 -1.0000000 )
                  (  1.0000000  0.0000000  0.0000000 )


      isym = 43     inv. 120 deg rotation - cart. axis [1,1,-1]  

 cryst.   s(43) = (    -1          0          1      )
                  (     0          0          1      )
                  (     0         -1          1      )

 cart.    s(43) = (  0.0000000 -1.0000000  0.0000000 )
                  (  0.0000000  0.0000000  1.0000000 )
                  (  1.0000000  0.0000000  0.0000000 )


      isym = 44     inv. 120 deg rotation - cart. axis [1,-1,1]  

 cryst.   s(44) = (     0          1          0      )
                  (    -1          1          0      )
                  (     0          1         -1      )

 cart.    s(44) = (  0.0000000  1.0000000  0.0000000 )
                  (  0.0000000  0.0000000  1.0000000 )
                  ( -1.0000000  0.0000000  0.0000000 )


      isym = 45     inv. 120 deg rotation - cart. axis [1,1,1]   

 cryst.   s(45) = (     0          0          1      )
                  (     0         -1          1      )
                  (    -1          0          1      )

 cart.    s(45) = (  0.0000000  0.0000000 -1.0000000 )
                  ( -1.0000000  0.0000000  0.0000000 )
                  (  0.0000000 -1.0000000  0.0000000 )


      isym = 46     inv. 120 deg rotation - cart. axis [-1,1,-1] 

 cryst.   s(46) = (     1         -1          0      )
                  (     1          0          0      )
                  (     1          0         -1      )

 cart.    s(46) = (  0.0000000  0.0000000 -1.0000000 )
                  (  1.0000000  0.0000000  0.0000000 )
                  (  0.0000000  1.0000000  0.0000000 )


      isym = 47     inv. 120 deg rotation - cart. axis [1,-1,-1] 

 cryst.   s(47) = (     0          0         -1      )
                  (    -1          0          0      )
                  (     0         -1          0      )

 cart.    s(47) = (  0.0000000  0.0000000  1.0000000 )
                  (  1.0000000  0.0000000  0.0000000 )
                  (  0.0000000 -1.0000000  0.0000000 )


      isym = 48     inv. 120 deg rotation - cart. axis [-1,-1,1] 

 cryst.   s(48) = (    -1          1          0      )
                  (     0          1         -1      )
                  (     0          1          0      )

 cart.    s(48) = (  0.0000000  0.0000000  1.0000000 )
                  ( -1.0000000  0.0000000  0.0000000 )
                  (  0.0000000  1.0000000  0.0000000 )


     point group O_h (m-3m) 
     there are 10 classes
     the character table:

       E     8C3   3C2   6C4   6C2'  i     8S6   3s_h  6S4   6s_d 
A_1g   1.00  1.00  1.00  1.00  1.00  1.00  1.00  1.00  1.00  1.00
A_2g   1.00  1.00  1.00 -1.00 -1.00  1.00  1.00  1.00 -1.00 -1.00
E_g    2.00 -1.00  2.00  0.00  0.00  2.00 -1.00  2.00  0.00  0.00
T_1g   3.00  0.00 -1.00  1.00 -1.00  3.00  0.00 -1.00  1.00 -1.00
T_2g   3.00  0.00 -1.00 -1.00  1.00  3.00  0.00 -1.00 -1.00  1.00
A_1u   1.00  1.00  1.00  1.00  1.00 -1.00 -1.00 -1.00 -1.00 -1.00
A_2u   1.00  1.00  1.00 -1.00 -1.00 -1.00 -1.00 -1.00  1.00  1.00
E_u    2.00 -1.00  2.00  0.00  0.00 -2.00  1.00 -2.00  0.00  0.00
T_1u   3.00  0.00 -1.00  1.00 -1.00 -3.00  0.00  1.00 -1.00  1.00
T_2u   3.00  0.00 -1.00 -1.00  1.00 -3.00  0.00  1.00  1.00 -1.00

     the symmetry operations in each class and the name of the first element:

     E        1
          identity                                               
     8C3     17   19   20   18   24   21   22   23
          120 deg rotation - cart. axis [-1,-1,-1]               
     3C2      2    4    3
          180 deg rotation - cart. axis [0,0,1]                  
     6C4      7    8   15   16   12   11
           90 deg rotation - cart. axis [0,0,-1]                 
     6C2'     5    6   14   13   10    9
          180 deg rotation - cart. axis [1,1,0]                  
     i       25
          inversion                                              
     8S6     41   43   44   42   48   45   46   47
          inv. 120 deg rotation - cart. axis [-1,-1,-1]          
     3s_h    26   28   27
          inv. 180 deg rotation - cart. axis [0,0,1]             
     6S4     31   32   39   40   36   35
          inv.  90 deg rotation - cart. axis [0,0,-1]            
     6s_d    29   30   38   37   34   33
          inv. 180 deg rotation - cart. axis [1,1,0]             

   Cartesian axes

     site n.     atom                  positions (alat units)
         1           Ca  tau(   1) = (   0.0000000   0.0000000   0.0000000  )

   Crystallographic axes

     site n.     atom                  positions (cryst. coord.)
         1           Ca  tau(   1) = (  0.0000000  0.0000000  0.0000000  )

     number of k points=    16  gaussian smearing, width (Ry)=  0.0100
                       cart. coord. in units 2pi/alat
        k(    1) = (   0.0000000   0.0000000   0.0000000), wk =   0.0092593
        k(    2) = (  -0.1666667   0.1666667  -0.1666667), wk =   0.0740741
        k(    3) = (  -0.3333333   0.3333333  -0.3333333), wk =   0.0740741
        k(    4) = (   0.5000000  -0.5000000   0.5000000), wk =   0.0370370
        k(    5) = (   0.0000000   0.3333333   0.0000000), wk =   0.0555556
        k(    6) = (  -0.1666667   0.5000000  -0.1666667), wk =   0.2222222
        k(    7) = (   0.6666667  -0.3333333   0.6666667), wk =   0.2222222
        k(    8) = (   0.5000000  -0.1666667   0.5000000), wk =   0.2222222
        k(    9) = (   0.3333333   0.0000000   0.3333333), wk =   0.1111111
        k(   10) = (   0.0000000   0.6666667   0.0000000), wk =   0.0555556
        k(   11) = (   0.8333333  -0.1666667   0.8333333), wk =   0.2222222
        k(   12) = (   0.6666667  -0.0000000   0.6666667), wk =   0.1111111
        k(   13) = (   0.0000000  -1.0000000   0.0000000), wk =   0.0277778
        k(   14) = (   0.6666667  -0.3333333   1.0000000), wk =   0.2222222
        k(   15) = (   0.5000000  -0.1666667   0.8333333), wk =   0.2222222
        k(   16) = (  -0.3333333  -1.0000000   0.0000000), wk =   0.1111111

                       cryst. coord.
        k(    1) = (   0.0000000   0.0000000   0.0000000), wk =   0.0092593
        k(    2) = (   0.0000000   0.0000000   0.1666667), wk =   0.0740741
        k(    3) = (   0.0000000   0.0000000   0.3333333), wk =   0.0740741
        k(    4) = (   0.0000000   0.0000000  -0.5000000), wk =   0.0370370
        k(    5) = (   0.0000000   0.1666667   0.1666667), wk =   0.0555556
        k(    6) = (   0.0000000   0.1666667   0.3333333), wk =   0.2222222
        k(    7) = (   0.0000000   0.1666667  -0.5000000), wk =   0.2222222
        k(    8) = (   0.0000000   0.1666667  -0.3333333), wk =   0.2222222
        k(    9) = (   0.0000000   0.1666667  -0.1666667), wk =   0.1111111
        k(   10) = (   0.0000000   0.3333333   0.3333333), wk =   0.0555556
        k(   11) = (   0.0000000   0.3333333  -0.5000000), wk =   0.2222222
        k(   12) = (   0.0000000   0.3333333  -0.3333333), wk =   0.1111111
        k(   13) = (   0.0000000  -0.5000000  -0.5000000), wk =   0.0277778
        k(   14) = (   0.1666667   0.3333333  -0.5000000), wk =   0.2222222
        k(   15) = (   0.1666667   0.3333333  -0.3333333), wk =   0.2222222
        k(   16) = (   0.1666667  -0.5000000  -0.3333333), wk =   0.1111111

     Dense  grid:    26469 G-vectors     FFT dimensions: (  45,  45,  45)

     Smooth grid:     7799 G-vectors     FFT dimensions: (  27,  27,  27)

     Dynamical RAM for                 wfc:       0.13 MB

     Dynamical RAM for     wfc (w. buffer):       2.29 MB

     Dynamical RAM for           str. fact:       0.40 MB

     Dynamical RAM for           local pot:       0.00 MB

     Dynamical RAM for          nlocal pot:       0.27 MB

     Dynamical RAM for                qrad:       4.71 MB

     Dynamical RAM for          rho,v,vnew:       3.30 MB

     Dynamical RAM for               rhoin:       1.10 MB

     Dynamical RAM for            rho*nmix:       6.46 MB

     Dynamical RAM for           G-vectors:       1.57 MB

     Dynamical RAM for          h,s,v(r/c):       0.06 MB

     Dynamical RAM for          <psi|beta>:       0.00 MB

     Dynamical RAM for                 psi:       0.54 MB

     Dynamical RAM for                hpsi:       0.54 MB

     Dynamical RAM for                spsi:       0.54 MB

     Dynamical RAM for      wfcinit/wfcrot:       0.30 MB

     Dynamical RAM for           addusdens:      75.53 MB

     Dynamical RAM for          addusforce:      75.73 MB

     Dynamical RAM for         addusstress:      81.18 MB

     Estimated static dynamical RAM per process >      24.39 MB

     Estimated max dynamical RAM per process >     105.57 MB

     Check: negative/imaginary core charge=   -0.000003    0.000000

     Initial potential from superposition of free atoms
     Check: negative starting charge=   -0.000167

     starting charge    9.99454, renormalised to   10.00000

     negative rho (up, down):  1.668E-04 0.000E+00
     Starting wfcs are   10 randomized atomic wfcs

     total cpu time spent up to now is        2.0 secs

     Self-consistent Calculation

     iteration #  1     ecut=    35.00 Ry     beta= 0.40
     Davidson diagonalization with overlap
     ethr =  1.00E-02,  avg # of iterations =  2.4

     Threshold (ethr) on eigenvalues was too large:
     Diagonalizing with lowered threshold

     Davidson diagonalization with overlap
     ethr =  1.93E-05,  avg # of iterations =  4.2

     negative rho (up, down):  1.623E-04 0.000E+00

     total cpu time spent up to now is        3.2 secs

     total energy              =     -74.72927756 Ry
     Harris-Foulkes estimate   =     -74.72917013 Ry
     estimated scf accuracy    <       0.00177749 Ry

     iteration #  2     ecut=    35.00 Ry     beta= 0.40
     Davidson diagonalization with overlap
     ethr =  1.78E-05,  avg # of iterations =  1.1

     negative rho (up, down):  1.581E-04 0.000E+00

     total cpu time spent up to now is        3.8 secs

     total energy              =     -74.72947714 Ry
     Harris-Foulkes estimate   =     -74.72933002 Ry
     estimated scf accuracy    <       0.00054917 Ry

     iteration #  3     ecut=    35.00 Ry     beta= 0.40
     Davidson diagonalization with overlap
     ethr =  5.49E-06,  avg # of iterations =  2.1

     negative rho (up, down):  1.578E-04 0.000E+00

     total cpu time spent up to now is        4.4 secs

     total energy              =     -74.72952900 Ry
     Harris-Foulkes estimate   =     -74.72952792 Ry
     estimated scf accuracy    <       0.00004267 Ry

     iteration #  4     ecut=    35.00 Ry     beta= 0.40
     Davidson diagonalization with overlap
     ethr =  4.27E-07,  avg # of iterations =  2.5

     negative rho (up, down):  1.576E-04 0.000E+00

     total cpu time spent up to now is        5.0 secs

     total energy              =     -74.72953441 Ry
     Harris-Foulkes estimate   =     -74.72953524 Ry
     estimated scf accuracy    <       0.00000128 Ry

     iteration #  5     ecut=    35.00 Ry     beta= 0.40
     Davidson diagonalization with overlap
     ethr =  1.28E-08,  avg # of iterations =  3.0

     negative rho (up, down):  1.575E-04 0.000E+00

     total cpu time spent up to now is        5.6 secs

     End of self-consistent calculation

          k = 0.0000 0.0000 0.0000 (   941 PWs)   bands (ev):

   -36.8640 -17.7765 -17.7765 -17.7765   1.0773   7.4880   7.4880   7.4880
     8.5752

     occupation numbers 
     1.0000   1.0000   1.0000   1.0000   1.0000   0.0000   0.0000   0.0000
     0.0000

          k =-0.1667 0.1667-0.1667 (   968 PWs)   bands (ev):

   -36.8604 -17.8135 -17.7816 -17.7816   1.5492   7.0167   7.6225   7.6225
     8.4828

     occupation numbers 
     1.0000   1.0000   1.0000   1.0000   1.0000   0.0000   0.0000   0.0000
     0.0000

          k =-0.3333 0.3333-0.3333 (   968 PWs)   bands (ev):

   -36.8531 -17.8861 -17.7916 -17.7916   2.8233   6.0210   7.5164   7.5164
     8.8632

     occupation numbers 
     1.0000   1.0000   1.0000   1.0000   1.0000   0.0000   0.0000   0.0000
     0.0000

          k = 0.5000-0.5000 0.5000 (   978 PWs)   bands (ev):

   -36.8495 -17.9220 -17.7967 -17.7967   4.1381   4.9726   7.3697   7.3697
     9.2725

     occupation numbers 
     1.0000   1.0000   1.0000   1.0000   1.0000   0.9785   0.0000   0.0000
     0.0000

          k = 0.0000 0.3333 0.0000 (   966 PWs)   bands (ev):

   -36.8592 -17.8122 -17.7899 -17.7899   1.7036   6.9183   7.7462   7.7462
     7.9696

     occupation numbers 
     1.0000   1.0000   1.0000   1.0000   1.0000   0.0000   0.0000   0.0000
     0.0000

          k =-0.1667 0.5000-0.1667 (   981 PWs)   bands (ev):

   -36.8532 -17.8655 -17.8020 -17.8016   2.7082   6.2867   7.2335   7.8600
     8.4227

     occupation numbers 
     1.0000   1.0000   1.0000   1.0000   1.0000   0.0000   0.0000   0.0000
     0.0000

          k = 0.6667-0.3333 0.6667 (   992 PWs)   bands (ev):

   -36.8483 -17.9072 -17.8180 -17.8050   4.2116   5.2876   6.9149   7.6826
     9.2992

     occupation numbers 
     1.0000   1.0000   1.0000   1.0000   1.0000   0.1054   0.0000   0.0000
     0.0000

          k = 0.5000-0.1667 0.5000 (   975 PWs)   bands (ev):

   -36.8495 -17.8957 -17.8227 -17.7967   3.7014   5.7330   6.9011   7.6982
     8.7501

     occupation numbers 
     1.0000   1.0000   1.0000   1.0000   1.0000   0.0000   0.0000   0.0000
     0.0000

          k = 0.3333 0.0000 0.3333 (   975 PWs)   bands (ev):

   -36.8556 -17.8484 -17.8052 -17.7850   2.2924   6.5662   7.3402   7.9791
     8.0398

     occupation numbers 
     1.0000   1.0000   1.0000   1.0000   1.0000   0.0000   0.0000   0.0000
     0.0000

          k = 0.0000 0.6667 0.0000 (  1002 PWs)   bands (ev):

   -36.8496 -17.8808 -17.8165 -17.8165   3.3375   6.0528   6.7788   8.5548
     8.5548

     occupation numbers 
     1.0000   1.0000   1.0000   1.0000   1.0000   0.0000   0.0000   0.0000
     0.0000

          k = 0.8333-0.1667 0.8333 (   987 PWs)   bands (ev):

   -36.8460 -17.8988 -17.8387 -17.8215   4.4678   5.7170   6.2715   8.5390
     9.3609

     occupation numbers 
     1.0000   1.0000   1.0000   1.0000   1.0000   0.0000   0.0000   0.0000
     0.0000

          k = 0.6667-0.0000 0.6667 (   981 PWs)   bands (ev):

   -36.8459 -17.8745 -17.8737 -17.8117   4.9322   5.6966   5.9473   8.1564
     8.9773

     occupation numbers 
     1.0000   1.0000   1.0000   1.0000   0.9927   0.0000   0.0000   0.0000
     0.0000

          k = 0.0000-1.0000 0.0000 (   982 PWs)   bands (ev):

   -36.8448 -17.9135 -17.8298 -17.8298   4.6603   5.7007   6.1158   9.2656
     9.4586

     occupation numbers 
     1.0000   1.0000   1.0000   1.0000   1.0000   0.0000   0.0000   0.0000
     0.0000

          k = 0.6667-0.3333 1.0000 (   983 PWs)   bands (ev):

   -36.8484 -17.8849 -17.8356 -17.8092   3.8330   5.9964   6.4863   8.1130
     8.6647

     occupation numbers 
     1.0000   1.0000   1.0000   1.0000   1.0000   0.0000   0.0000   0.0000
     0.0000

          k = 0.5000-0.1667 0.8333 (   988 PWs)   bands (ev):

   -36.8459 -17.8894 -17.8532 -17.8174   5.1333   5.2389   6.2740   7.9239
     9.0906

     occupation numbers 
     1.0000   1.0000   1.0000   1.0000   0.6378   0.2283   0.0000   0.0000
     0.0000

          k =-0.3333-1.0000 0.0000 (   978 PWs)   bands (ev):

   -36.8447 -17.8927 -17.8508 -17.8307   5.1059   5.7496   5.9473   8.1383
     9.4604

     occupation numbers 
     1.0000   1.0000   1.0000   1.0000   0.7382   0.0000   0.0000   0.0000
     0.0000

     the Fermi energy is     5.1672 ev

!    total energy              =     -74.72953489 Ry
     Harris-Foulkes estimate   =     -74.72953493 Ry
     estimated scf accuracy    <       0.00000015 Ry

     The total energy is the sum of the following terms:

     one-electron contribution =     -38.53051182 Ry
     hartree contribution      =      19.66942799 Ry
     xc contribution           =     -11.75400587 Ry
     ewald contribution        =     -44.11280935 Ry
     smearing contrib. (-TS)   =      -0.00163584 Ry

     convergence has been achieved in   5 iterations

     negative rho (up, down):  1.575E-04 0.000E+00

     Forces acting on atoms (cartesian axes, Ry/au):

     atom    1 type  1   force =     0.00000000    0.00000000    0.00000000
     The non-local contrib.  to forces
     atom    1 type  1   force =    -0.00000000   -0.00000000   -0.00000000
     The ionic contribution  to forces
     atom    1 type  1   force =     0.00000000    0.00000000    0.00000000
     The local contribution  to forces
     atom    1 type  1   force =    -0.00000000   -0.00000000    0.00000000
     The core correction contribution to forces
     atom    1 type  1   force =    -0.00000000   -0.00000000    0.00000000
     The Hubbard contrib.    to forces
     atom    1 type  1   force =     0.00000000    0.00000000    0.00000000
     The SCF correction term to forces
     atom    1 type  1   force =     0.00000000    0.00000000   -0.00000000

     Total force =     0.000000     Total SCF correction =     0.000000


     Computing stress (Cartesian axis) and pressure


     negative rho (up, down):  1.575E-04 0.000E+00
          total   stress  (Ry/bohr**3)                   (kbar)     P=   -0.31
  -0.00000210   0.00000000   0.00000000         -0.31      0.00      0.00
   0.00000000  -0.00000210   0.00000000          0.00     -0.31      0.00
   0.00000000   0.00000000  -0.00000210          0.00      0.00     -0.31

     kinetic stress (kbar)   4390.49      0.00      0.00
                                0.00   4390.49     -0.00
                                0.00     -0.00   4390.49

     local   stress (kbar)  -3496.34      0.00      0.00
                                0.00  -3496.34     -0.00
                                0.00     -0.00  -3496.34

     nonloc. stress (kbar)   5283.88      0.00     -0.00
                                0.00   5283.88     -0.00
                                0.00     -0.00   5283.88

     hartree stress (kbar)   3436.16     -0.00      0.00
                               -0.00   3436.16      0.00
                                0.00      0.00   3436.16

     exc-cor stress (kbar)  -1026.55     -0.00      0.00
                               -0.00  -1026.55     -0.00
                                0.00     -0.00  -1026.55

     corecor stress (kbar)   -881.64      0.00      0.00
                                0.00   -881.64     -0.00
                                0.00     -0.00   -881.64

     ewald   stress (kbar)  -7706.31     -0.00     -0.00
                               -0.00  -7706.31      0.00
                               -0.00      0.00  -7706.31

     hubbard stress (kbar)      0.00      0.00      0.00
                                0.00      0.00      0.00
                                0.00      0.00      0.00

     london  stress (kbar)      0.00      0.00      0.00
                                0.00      0.00      0.00
                                0.00      0.00      0.00

     DFT-D3  stress (kbar)      0.00      0.00      0.00
                                0.00      0.00      0.00
                                0.00      0.00      0.00

     XDM     stress (kbar)      0.00      0.00      0.00
                                0.00      0.00      0.00
                                0.00      0.00      0.00

     dft-nl  stress (kbar)      0.00      0.00      0.00
                                0.00      0.00      0.00
                                0.00      0.00      0.00

     TS-vdW  stress (kbar)      0.00      0.00      0.00
                                0.00      0.00      0.00
                                0.00      0.00      0.00



     BFGS Geometry Optimization

     number of scf cycles    =   1
     number of bfgs steps    =   0

     enthalpy new            =     -74.4433225571 Ry

     new trust radius        =       0.0855935399 bohr
     new conv_thr            =       0.0000010000 Ry

     new unit-cell volume =    259.72312 a.u.^3 (    38.48700 Ang^3 )
     density =      1.72918 g/cm^3

CELL_PARAMETERS (alat= 10.39349373)
  -0.487227713  -0.000000000   0.487227713
  -0.000000000   0.487227713   0.487227713
  -0.487227713   0.487227713   0.000000000

ATOMIC_POSITIONS (crystal)
Ca       0.000000000   0.000000000   0.000000000



     Writing output data file Ca.save/
     Check: negative starting charge=   -0.000167
     NEW-OLD atomic charge density approx. for the potential

     Check: negative/imaginary core charge=   -0.000003    0.000000
     Check: negative starting charge=   -0.000155

     negative rho (up, down):  1.321E-04 0.000E+00
     extrapolated charge    9.19322, renormalised to   10.00000

     total cpu time spent up to now is        8.7 secs

     Self-consistent Calculation

     iteration #  1     ecut=    35.00 Ry     beta= 0.40
     Davidson diagonalization with overlap
     ethr =  1.00E-06,  avg # of iterations =  5.1

     negative rho (up, down):  9.118E-05 0.000E+00

     total cpu time spent up to now is        9.6 secs

     total energy              =     -74.46055109 Ry
     Harris-Foulkes estimate   =     -76.71700526 Ry
     estimated scf accuracy    <       0.20030752 Ry

     iteration #  2     ecut=    35.00 Ry     beta= 0.40
     Davidson diagonalization with overlap
     ethr =  2.00E-03,  avg # of iterations =  3.2

     negative rho (up, down):  1.101E-04 0.000E+00

     total cpu time spent up to now is       10.3 secs

     total energy              =     -74.73931640 Ry
     Harris-Foulkes estimate   =     -74.76871524 Ry
     estimated scf accuracy    <       0.07971526 Ry

     iteration #  3     ecut=    35.00 Ry     beta= 0.40
     Davidson diagonalization with overlap
     ethr =  7.97E-04,  avg # of iterations =  1.1

     negative rho (up, down):  1.196E-04 0.000E+00

     total cpu time spent up to now is       10.8 secs

     total energy              =     -74.73354393 Ry
     Harris-Foulkes estimate   =     -74.74182344 Ry
     estimated scf accuracy    <       0.02952873 Ry

     iteration #  4     ecut=    35.00 Ry     beta= 0.40
     Davidson diagonalization with overlap
     ethr =  2.95E-04,  avg # of iterations =  1.6

     negative rho (up, down):  1.297E-04 0.000E+00

     total cpu time spent up to now is       11.3 secs

     total energy              =     -74.72973698 Ry
     Harris-Foulkes estimate   =     -74.73462952 Ry
     estimated scf accuracy    <       0.01298310 Ry

     iteration #  5     ecut=    35.00 Ry     beta= 0.40
     Davidson diagonalization with overlap
     ethr =  1.30E-04,  avg # of iterations =  1.4

     negative rho (up, down):  1.420E-04 0.000E+00

     total cpu time spent up to now is       11.9 secs

     total energy              =     -74.72749132 Ry
     Harris-Foulkes estimate   =     -74.73027417 Ry
     estimated scf accuracy    <       0.00458103 Ry

     iteration #  6     ecut=    35.00 Ry     beta= 0.40
     Davidson diagonalization with overlap
     ethr =  4.58E-05,  avg # of iterations =  3.1

     negative rho (up, down):  1.431E-04 0.000E+00

     total cpu time spent up to now is       12.5 secs

     total energy              =     -74.72836128 Ry
     Harris-Foulkes estimate   =     -74.72840108 Ry
     estimated scf accuracy    <       0.00010512 Ry

     iteration #  7     ecut=    35.00 Ry     beta= 0.40
     Davidson diagonalization with overlap
     ethr =  1.05E-06,  avg # of iterations =  2.3

     negative rho (up, down):  1.438E-04 0.000E+00

     total cpu time spent up to now is       13.1 secs

     total energy              =     -74.72835063 Ry
     Harris-Foulkes estimate   =     -74.72837037 Ry
     estimated scf accuracy    <       0.00003567 Ry

     iteration #  8     ecut=    35.00 Ry     beta= 0.40
     Davidson diagonalization with overlap
     ethr =  3.57E-07,  avg # of iterations =  2.1

     negative rho (up, down):  1.444E-04 0.000E+00

     total cpu time spent up to now is       13.6 secs

     total energy              =     -74.72835387 Ry
     Harris-Foulkes estimate   =     -74.72835595 Ry
     estimated scf accuracy    <       0.00000245 Ry

     iteration #  9     ecut=    35.00 Ry     beta= 0.40
     Davidson diagonalization with overlap
     ethr =  2.45E-08,  avg # of iterations =  2.9

     negative rho (up, down):  1.441E-04 0.000E+00

     total cpu time spent up to now is       14.2 secs

     total energy              =     -74.72835466 Ry
     Harris-Foulkes estimate   =     -74.72835610 Ry
     estimated scf accuracy    <       0.00000208 Ry

     iteration # 10     ecut=    35.00 Ry     beta= 0.40
     Davidson diagonalization with overlap
     ethr =  2.08E-08,  avg # of iterations =  2.4

     negative rho (up, down):  1.440E-04 0.000E+00

     total cpu time spent up to now is       14.8 secs

     End of self-consistent calculation

          k = 0.0000 0.0000 0.0000 (   941 PWs)   bands (ev):

   -36.1203 -17.0201 -17.0201 -17.0201   1.5159   8.1596   8.1596   8.1596
     9.3487

     occupation numbers 
     1.0000   1.0000   1.0000   1.0000   1.0000   0.0000   0.0000   0.0000
     0.0000

          k =-0.1710 0.1710-0.1710 (   968 PWs)   bands (ev):

   -36.1152 -17.0693 -17.0267 -17.0267   2.0189   7.6524   8.3063   8.3063
     9.2449

     occupation numbers 
     1.0000   1.0000   1.0000   1.0000   1.0000   0.0000   0.0000   0.0000
     0.0000

          k =-0.3421 0.3421-0.3421 (   968 PWs)   bands (ev):

   -36.1048 -17.1656 -17.0397 -17.0397   3.3585   6.6252   8.1879   8.1879
     9.6630

     occupation numbers 
     1.0000   1.0000   1.0000   1.0000   1.0000   0.0000   0.0000   0.0000
     0.0000

          k = 0.5131-0.5131 0.5131 (   978 PWs)   bands (ev):

   -36.0995 -17.2130 -17.0463 -17.0463   4.6779   5.6164   8.0272   8.0272
    10.1148

     occupation numbers 
     1.0000   1.0000   1.0000   1.0000   1.0000   0.9069   0.0000   0.0000
     0.0000

          k = 0.0000 0.3421 0.0000 (   966 PWs)   bands (ev):

   -36.1135 -17.0677 -17.0376 -17.0376   2.1829   7.5365   8.4454   8.4454
     8.6797

     occupation numbers 
     1.0000   1.0000   1.0000   1.0000   1.0000   0.0000   0.0000   0.0000
     0.0000

          k =-0.1710 0.5131-0.1710 (   981 PWs)   bands (ev):

   -36.1048 -17.1382 -17.0535 -17.0529   3.2409   6.8737   7.8801   8.5691
     9.1857

     occupation numbers 
     1.0000   1.0000   1.0000   1.0000   1.0000   0.0000   0.0000   0.0000
     0.0000

          k = 0.6841-0.3421 0.6841 (   992 PWs)   bands (ev):

   -36.0979 -17.1932 -17.0747 -17.0573   4.7853   5.8838   7.5404   8.3719
    10.1444

     occupation numbers 
     1.0000   1.0000   1.0000   1.0000   1.0000   0.0725   0.0000   0.0000
     0.0000

          k = 0.5131-0.1710 0.5131 (   975 PWs)   bands (ev):

   -36.0996 -17.1781 -17.0809 -17.0463   4.2711   6.3312   7.5254   8.3859
     9.5378

     occupation numbers 
     1.0000   1.0000   1.0000   1.0000   1.0000   0.0000   0.0000   0.0000
     0.0000

          k = 0.3421 0.0000 0.3421 (   975 PWs)   bands (ev):

   -36.1083 -17.1156 -17.0578 -17.0311   2.8057   7.1735   8.0020   8.6934
     8.7571

     occupation numbers 
     1.0000   1.0000   1.0000   1.0000   1.0000   0.0000   0.0000   0.0000
     0.0000

          k = 0.0000 0.6841 0.0000 (  1002 PWs)   bands (ev):

   -36.0997 -17.1583 -17.0726 -17.0726   3.8864   6.6014   7.4160   9.3337
     9.3337

     occupation numbers 
     1.0000   1.0000   1.0000   1.0000   1.0000   0.0000   0.0000   0.0000
     0.0000

          k = 0.8552-0.1710 0.8552 (   987 PWs)   bands (ev):

   -36.0944 -17.1819 -17.1019 -17.0791   5.0190   6.2693   6.9099   9.3122
    10.2711

     occupation numbers 
     1.0000   1.0000   1.0000   1.0000   1.0000   0.0000   0.0000   0.0000
     0.0000

          k = 0.6841 0.0000 0.6841 (   981 PWs)   bands (ev):

   -36.0944 -17.1497 -17.1485 -17.0660   5.5130   6.2508   6.5829   8.8911
     9.7877

     occupation numbers 
     1.0000   1.0000   1.0000   1.0000   0.9917   0.0000   0.0000   0.0000
     0.0000

          k = 0.0000-1.0262 0.0000 (   982 PWs)   bands (ev):

   -36.0927 -17.2012 -17.0899 -17.0899   5.1492   6.2233   6.8471  10.1077
    10.3202

     occupation numbers 
     1.0000   1.0000   1.0000   1.0000   1.0000   0.0000   0.0000   0.0000
     0.0000

          k = 0.6841-0.3421 1.0262 (   983 PWs)   bands (ev):

   -36.0979 -17.1636 -17.0979 -17.0629   4.4058   6.5747   7.0869   8.8506
     9.4484

     occupation numbers 
     1.0000   1.0000   1.0000   1.0000   1.0000   0.0000   0.0000   0.0000
     0.0000

          k = 0.5131-0.1710 0.8552 (   988 PWs)   bands (ev):

   -36.0944 -17.1694 -17.1212 -17.0737   5.7037   5.8357   6.8722   8.6538
     9.9250

     occupation numbers 
     1.0000   1.0000   1.0000   1.0000   0.6606   0.1692   0.0000   0.0000
     0.0000

          k =-0.3421-1.0262 0.0000 (   978 PWs)   bands (ev):

   -36.0927 -17.1736 -17.1179 -17.0913   5.6195   6.3141   6.6109   8.9131
    10.3222

     occupation numbers 
     1.0000   1.0000   1.0000   1.0000   0.9014   0.0000   0.0000   0.0000
     0.0000

     the Fermi energy is     5.7436 ev

!    total energy              =     -74.72835509 Ry
     Harris-Foulkes estimate   =     -74.72835509 Ry
     estimated scf accuracy    <          5.4E-09 Ry

     The total energy is the sum of the following terms:

     one-electron contribution =     -36.71508435 Ry
     hartree contribution      =      19.04074398 Ry
     xc contribution           =     -11.78343700 Ry
     ewald contribution        =     -45.26919154 Ry
     smearing contrib. (-TS)   =      -0.00138618 Ry

     convergence has been achieved in  10 iterations

     negative rho (up, down):  1.440E-04 0.000E+00

     Forces acting on atoms (cartesian axes, Ry/au):

     atom    1 type  1   force =     0.00000000    0.00000000    0.00000000
     The non-local contrib.  to forces
     atom    1 type  1   force =     0.00000000    0.00000000   -0.00000000
     The ionic contribution  to forces
     atom    1 type  1   force =     0.00000000    0.00000000    0.00000000
     The local contribution  to forces
     atom    1 type  1   force =    -0.00000000    0.00000000    0.00000000
     The core correction contribution to forces
     atom    1 type  1   force =    -0.00000000   -0.00000000    0.00000000
     The Hubbard contrib.    to forces
     atom    1 type  1   force =     0.00000000    0.00000000    0.00000000
     The SCF correction term to forces
     atom    1 type  1   force =    -0.00000000   -0.00000000    0.00000000

     Total force =     0.000000     Total SCF correction =     0.000000


     Computing stress (Cartesian axis) and pressure


     negative rho (up, down):  1.440E-04 0.000E+00
          total   stress  (Ry/bohr**3)                   (kbar)     P=   16.71
   0.00011358   0.00000000  -0.00000000         16.71      0.00     -0.00
   0.00000000   0.00011358   0.00000000          0.00     16.71      0.00
  -0.00000000   0.00000000   0.00011358         -0.00      0.00     16.71

     kinetic stress (kbar)   4765.35      0.00     -0.00
                                0.00   4765.35      0.00
                               -0.00      0.00   4765.35

     local   stress (kbar)  -3444.75      0.00      0.00
                                0.00  -3444.75     -0.00
                                0.00     -0.00  -3444.75

     nonloc. stress (kbar)   5715.11     -0.00      0.00
                                0.00   5715.11     -0.00
                                0.00     -0.00   5715.11

     hartree stress (kbar)   3594.84     -0.00      0.00
                               -0.00   3594.84      0.00
                                0.00      0.00   3594.84

     exc-cor stress (kbar)  -1114.19     -0.00      0.00
                               -0.00  -1114.19      0.00
                                0.00      0.00  -1114.19

     corecor stress (kbar)   -952.95      0.00     -0.00
                                0.00   -952.95     -0.00
                               -0.00     -0.00   -952.95

     ewald   stress (kbar)  -8546.70     -0.00      0.00
                               -0.00  -8546.70     -0.00
                                0.00     -0.00  -8546.70

     hubbard stress (kbar)      0.00      0.00      0.00
                                0.00      0.00      0.00
                                0.00      0.00      0.00

     london  stress (kbar)      0.00      0.00      0.00
                                0.00      0.00      0.00
                                0.00      0.00      0.00

     DFT-D3  stress (kbar)      0.00      0.00      0.00
                                0.00      0.00      0.00
                                0.00      0.00      0.00

     XDM     stress (kbar)      0.00      0.00      0.00
                                0.00      0.00      0.00
                                0.00      0.00      0.00

     dft-nl  stress (kbar)      0.00      0.00      0.00
                                0.00      0.00      0.00
                                0.00      0.00      0.00

     TS-vdW  stress (kbar)      0.00      0.00      0.00
                                0.00      0.00      0.00
                                0.00      0.00      0.00



     number of scf cycles    =   2
     number of bfgs steps    =   1

     enthalpy old            =     -74.4433225571 Ry
     enthalpy new            =     -74.4635207582 Ry

     CASE: enthalpy_new < enthalpy_old


     WARNING: bfgs curvature condition failed, Theta= 0.950
     new trust radius        =       0.1267398638 bohr
     new conv_thr            =       0.0000000100 Ry

     new unit-cell volume =    230.27410 a.u.^3 (    34.12310 Ang^3 )
     density =      1.95032 g/cm^3

CELL_PARAMETERS (alat= 10.39349373)
  -0.468069283  -0.000000000   0.468069283
  -0.000000000   0.468069283   0.468069283
  -0.468069283   0.468069283   0.000000000

ATOMIC_POSITIONS (crystal)
Ca       0.000000000   0.000000000   0.000000000



     Writing output data file Ca.save/
     Check: negative starting charge=   -0.000155
     NEW-OLD atomic charge density approx. for the potential

     Check: negative/imaginary core charge=   -0.000002    0.000000
     Check: negative starting charge=   -0.000137

     negative rho (up, down):  1.062E-04 0.000E+00
     extrapolated charge    8.72183, renormalised to   10.00000

     total cpu time spent up to now is       17.8 secs

     Self-consistent Calculation

     iteration #  1     ecut=    35.00 Ry     beta= 0.40
     Davidson diagonalization with overlap
     ethr =  1.00E-06,  avg # of iterations =  6.2

     negative rho (up, down):  2.762E-05 0.000E+00

     total cpu time spent up to now is       18.7 secs

     total energy              =     -73.91080349 Ry
     Harris-Foulkes estimate   =     -77.66113206 Ry
     estimated scf accuracy    <       0.66897282 Ry

     iteration #  2     ecut=    35.00 Ry     beta= 0.40
     Davidson diagonalization with overlap
     ethr =  6.69E-03,  avg # of iterations =  3.1

     negative rho (up, down):  6.043E-05 0.000E+00

     total cpu time spent up to now is       19.4 secs

     total energy              =     -74.75538531 Ry
     Harris-Foulkes estimate   =     -74.84788863 Ry
     estimated scf accuracy    <       0.25028592 Ry

     iteration #  3     ecut=    35.00 Ry     beta= 0.40
     Davidson diagonalization with overlap
     ethr =  2.50E-03,  avg # of iterations =  1.1

     negative rho (up, down):  7.530E-05 0.000E+00

     total cpu time spent up to now is       19.9 secs

     total energy              =     -74.74137813 Ry
     Harris-Foulkes estimate   =     -74.76360051 Ry
     estimated scf accuracy    <       0.09045822 Ry

     iteration #  4     ecut=    35.00 Ry     beta= 0.40
     Davidson diagonalization with overlap
     ethr =  9.05E-04,  avg # of iterations =  1.2

     negative rho (up, down):  9.108E-05 0.000E+00

     total cpu time spent up to now is       20.4 secs

     total energy              =     -74.73029045 Ry
     Harris-Foulkes estimate   =     -74.74391552 Ry
     estimated scf accuracy    <       0.04512352 Ry

     iteration #  5     ecut=    35.00 Ry     beta= 0.40
     Davidson diagonalization with overlap
     ethr =  4.51E-04,  avg # of iterations =  1.1

     negative rho (up, down):  1.218E-04 0.000E+00

     total cpu time spent up to now is       21.0 secs

     total energy              =     -74.71724320 Ry
     Harris-Foulkes estimate   =     -74.73136323 Ry
     estimated scf accuracy    <       0.02178212 Ry

     iteration #  6     ecut=    35.00 Ry     beta= 0.40
     Davidson diagonalization with overlap
     ethr =  2.18E-04,  avg # of iterations =  3.1

     negative rho (up, down):  1.232E-04 0.000E+00

     total cpu time spent up to now is       21.6 secs

     total energy              =     -74.72197167 Ry
     Harris-Foulkes estimate   =     -74.72199542 Ry
     estimated scf accuracy    <       0.00009591 Ry

     iteration #  7     ecut=    35.00 Ry     beta= 0.40
     Davidson diagonalization with overlap
     ethr =  9.59E-07,  avg # of iterations =  2.7

     negative rho (up, down):  1.253E-04 0.000E+00

     total cpu time spent up to now is       22.2 secs

     total energy              =     -74.72194866 Ry
     Harris-Foulkes estimate   =     -74.72198632 Ry
     estimated scf accuracy    <       0.00004613 Ry

     iteration #  8     ecut=    35.00 Ry     beta= 0.40
     Davidson diagonalization with overlap
     ethr =  4.61E-07,  avg # of iterations =  2.6

     negative rho (up, down):  1.248E-04 0.000E+00

     total cpu time spent up to now is       22.8 secs

     total energy              =     -74.72196695 Ry
     Harris-Foulkes estimate   =     -74.72197082 Ry
     estimated scf accuracy    <       0.00001139 Ry

     iteration #  9     ecut=    35.00 Ry     beta= 0.40
     Davidson diagonalization with overlap
     ethr =  1.14E-07,  avg # of iterations =  1.0

     negative rho (up, down):  1.241E-04 0.000E+00

     total cpu time spent up to now is       23.3 secs

     total energy              =     -74.72196449 Ry
     Harris-Foulkes estimate   =     -74.72196728 Ry
     estimated scf accuracy    <       0.00000446 Ry

     iteration # 10     ecut=    35.00 Ry     beta= 0.40
     Davidson diagonalization with overlap
     ethr =  4.46E-08,  avg # of iterations =  2.6

     negative rho (up, down):  1.242E-04 0.000E+00

     total cpu time spent up to now is       23.9 secs

     total energy              =     -74.72196545 Ry
     Harris-Foulkes estimate   =     -74.72196541 Ry
     estimated scf accuracy    <       0.00000003 Ry

     iteration # 11     ecut=    35.00 Ry     beta= 0.40
     Davidson diagonalization with overlap
     ethr =  3.48E-10,  avg # of iterations =  2.9

     negative rho (up, down):  1.241E-04 0.000E+00

     total cpu time spent up to now is       24.5 secs

     total energy              =     -74.72196539 Ry
     Harris-Foulkes estimate   =     -74.72196547 Ry
     estimated scf accuracy    <       0.00000013 Ry

     iteration # 12     ecut=    35.00 Ry     beta= 0.40
     Davidson diagonalization with overlap
     ethr =  3.48E-10,  avg # of iterations =  2.6

     negative rho (up, down):  1.241E-04 0.000E+00

     total cpu time spent up to now is       25.1 secs

     End of self-consistent calculation

          k = 0.0000 0.0000 0.0000 (   941 PWs)   bands (ev):

   -34.8893 -15.7567 -15.7567 -15.7567   2.2906   9.2800   9.2800   9.2800
    10.6442

     occupation numbers 
     1.0000   1.0000   1.0000   1.0000   1.0000   0.0000   0.0000   0.0000
     0.0000

          k =-0.1780 0.1780-0.1780 (   968 PWs)   bands (ev):

   -34.8803 -15.8321 -15.7664 -15.7664   2.8477   8.7154   9.4477   9.4477
    10.5202

     occupation numbers 
     1.0000   1.0000   1.0000   1.0000   1.0000   0.0000   0.0000   0.0000
     0.0000

          k =-0.3561 0.3561-0.3561 (   968 PWs)   bands (ev):

   -34.8623 -15.9790 -15.7857 -15.7857   4.2929   7.6511   9.3087   9.3087
    11.0027

     occupation numbers 
     1.0000   1.0000   1.0000   1.0000   1.0000   0.0000   0.0000   0.0000
     0.0000

          k = 0.5341-0.5341 0.5341 (   978 PWs)   bands (ev):

   -34.8533 -16.0509 -15.7953 -15.7953   5.5907   6.7436   9.1244   9.1244
    11.5279

     occupation numbers 
     1.0000   1.0000   1.0000   1.0000   1.0000   0.4849   0.0000   0.0000
     0.0000

          k = 0.0000 0.3561-0.0000 (   966 PWs)   bands (ev):

   -34.8773 -15.8298 -15.7830 -15.7830   3.0282   8.5668   9.6149   9.6149
     9.8663

     occupation numbers 
     1.0000   1.0000   1.0000   1.0000   1.0000   0.0000   0.0000   0.0000
     0.0000

          k =-0.1780 0.5341-0.1780 (   981 PWs)   bands (ev):

   -34.8624 -15.9370 -15.8068 -15.8057   4.1739   7.8581   8.9611   9.7561
    10.4660

     occupation numbers 
     1.0000   1.0000   1.0000   1.0000   1.0000   0.0000   0.0000   0.0000
     0.0000

          k = 0.7121-0.3561 0.7121 (   992 PWs)   bands (ev):

   -34.8504 -16.0204 -15.8387 -15.8119   5.7666   6.9066   8.5898   9.5243
    11.5786

     occupation numbers 
     1.0000   1.0000   1.0000   1.0000   1.0000   0.0416   0.0000   0.0000
     0.0000

          k = 0.5341-0.1780 0.5341 (   975 PWs)   bands (ev):

   -34.8534 -15.9975 -15.8483 -15.7954   5.2580   7.3490   8.5700   9.5346
    10.8562

     occupation numbers 
     1.0000   1.0000   1.0000   1.0000   1.0000   0.0000   0.0000   0.0000
     0.0000

          k = 0.3561 0.0000 0.3561 (   975 PWs)   bands (ev):

   -34.8684 -15.9028 -15.8135 -15.7727   3.7082   8.1919   9.1086   9.8859
     9.9557

     occupation numbers 
     1.0000   1.0000   1.0000   1.0000   1.0000   0.0000   0.0000   0.0000
     0.0000

          k = 0.0000 0.7121-0.0000 (  1002 PWs)   bands (ev):

   -34.8535 -15.9672 -15.8352 -15.8352   4.8353   7.5159   8.4992  10.6417
    10.6417

     occupation numbers 
     1.0000   1.0000   1.0000   1.0000   1.0000   0.0000   0.0000   0.0000
     0.0000

          k = 0.8902-0.1780 0.8902 (   987 PWs)   bands (ev):

   -34.8445 -16.0025 -15.8800 -15.8448   5.9476   7.1955   8.0140  10.6094
    11.7386

     occupation numbers 
     1.0000   1.0000   1.0000   1.0000   1.0000   0.0000   0.0000   0.0000
     0.0000

          k = 0.7121 0.0000 0.7121 (   981 PWs)   bands (ev):

   -34.8445 -15.9537 -15.9513 -15.8250   6.5060   7.1783   7.6698  10.1224
    11.9565

     occupation numbers 
     1.0000   1.0000   1.0000   1.0000   0.9925   0.0000   0.0000   0.0000
     0.0000

          k = 0.0000-1.0682 0.0000 (   982 PWs)   bands (ev):

   -34.8416 -16.0317 -15.8612 -15.8612   5.9673   7.0950   8.1230  11.5214
    11.7665

     occupation numbers 
     1.0000   1.0000   1.0000   1.0000   1.0000   0.0001   0.0000   0.0000
     0.0000

          k = 0.7121-0.3561 1.0682 (   983 PWs)   bands (ev):

   -34.8504 -15.9752 -15.8741 -15.8206   5.3970   7.5484   8.0972  10.0888
    10.7620

     occupation numbers 
     1.0000   1.0000   1.0000   1.0000   1.0000   0.0000   0.0000   0.0000
     0.0000

          k = 0.5341-0.1780 0.8902 (   988 PWs)   bands (ev):

   -34.8445 -15.9835 -15.9096 -15.8370   6.6743   6.8481   7.8866   9.8759
    11.3228

     occupation numbers 
     1.0000   1.0000   1.0000   1.0000   0.7526   0.1306   0.0000   0.0000
     0.0000

          k =-0.3561-1.0682 0.0000 (   978 PWs)   bands (ev):

   -34.8415 -15.9895 -15.9043 -15.8639   6.4837   7.2652   7.7520  10.2088
    11.7688

     occupation numbers 
     1.0000   1.0000   1.0000   1.0000   0.9961   0.0000   0.0000   0.0000
     0.0000

     the Fermi energy is     6.7400 ev

!    total energy              =     -74.72196541 Ry
     Harris-Foulkes estimate   =     -74.72196541 Ry
     estimated scf accuracy    <          1.1E-09 Ry

     The total energy is the sum of the following terms:

     one-electron contribution =     -33.82522031 Ry
     hartree contribution      =      18.05879298 Ry
     xc contribution           =     -11.83234456 Ry
     ewald contribution        =     -47.12209381 Ry
     smearing contrib. (-TS)   =      -0.00109971 Ry

     convergence has been achieved in  12 iterations

     negative rho (up, down):  1.241E-04 0.000E+00

     Forces acting on atoms (cartesian axes, Ry/au):

     atom    1 type  1   force =     0.00000000    0.00000000    0.00000000
     The non-local contrib.  to forces
     atom    1 type  1   force =    -0.00000000    0.00000000   -0.00000000
     The ionic contribution  to forces
     atom    1 type  1   force =     0.00000000    0.00000000    0.00000000
     The local contribution  to forces
     atom    1 type  1   force =    -0.00000000    0.00000000    0.00000000
     The core correction contribution to forces
     atom    1 type  1   force =    -0.00000000   -0.00000000    0.00000000
     The Hubbard contrib.    to forces
     atom    1 type  1   force =     0.00000000    0.00000000    0.00000000
     The SCF correction term to forces
     atom    1 type  1   force =    -0.00000000   -0.00000000   -0.00000000

     Total force =     0.000000     Total SCF correction =     0.000000


     Computing stress (Cartesian axis) and pressure


     negative rho (up, down):  1.241E-04 0.000E+00
          total   stress  (Ry/bohr**3)                   (kbar)     P=   50.13
   0.00034075  -0.00000000  -0.00000000         50.13     -0.00     -0.00
  -0.00000000   0.00034075   0.00000000         -0.00     50.13      0.00
  -0.00000000   0.00000000   0.00034075         -0.00      0.00     50.13

     kinetic stress (kbar)   5415.23      0.00      0.00
                                0.00   5415.23     -0.00
                                0.00     -0.00   5415.23

     local   stress (kbar)  -3288.24      0.00      0.00
                                0.00  -3288.24     -0.00
                                0.00     -0.00  -3288.24

     nonloc. stress (kbar)   6452.64      0.00      0.00
                                0.00   6452.64     -0.00
                                0.00     -0.00   6452.64

     hartree stress (kbar)   3845.47     -0.00     -0.00
                               -0.00   3845.47      0.00
                               -0.00      0.00   3845.47

     exc-cor stress (kbar)  -1265.63     -0.00     -0.00
                               -0.00  -1265.63     -0.00
                               -0.00     -0.00  -1265.63

     corecor stress (kbar)  -1075.07      0.00     -0.00
                                0.00  -1075.07      0.00
                               -0.00      0.00  -1075.07

     ewald   stress (kbar) -10034.27     -0.00     -0.00
                               -0.00 -10034.27      0.00
                               -0.00      0.00 -10034.27

     hubbard stress (kbar)      0.00      0.00      0.00
                                0.00      0.00      0.00
                                0.00      0.00      0.00

     london  stress (kbar)      0.00      0.00      0.00
                                0.00      0.00      0.00
                                0.00      0.00      0.00

     DFT-D3  stress (kbar)      0.00      0.00      0.00
                                0.00      0.00      0.00
                                0.00      0.00      0.00

     XDM     stress (kbar)      0.00      0.00      0.00
                                0.00      0.00      0.00
                                0.00      0.00      0.00

     dft-nl  stress (kbar)      0.00      0.00      0.00
                                0.00      0.00      0.00
                                0.00      0.00      0.00

     TS-vdW  stress (kbar)      0.00      0.00      0.00
                                0.00      0.00      0.00
                                0.00      0.00      0.00



     number of scf cycles    =   3
     number of bfgs steps    =   2

     enthalpy old            =     -74.4635207582 Ry
     enthalpy new            =     -74.4871596431 Ry

     CASE: enthalpy_new < enthalpy_old

     new trust radius        =       0.1863346297 bohr
     new conv_thr            =       0.0000000100 Ry

     new unit-cell volume =    190.41103 a.u.^3 (    28.21600 Ang^3 )
     density =      2.35863 g/cm^3

CELL_PARAMETERS (alat= 10.39349373)
  -0.439331638   0.000000000   0.439331638
  -0.000000000   0.439331638   0.439331638
  -0.439331638   0.439331638   0.000000000

ATOMIC_POSITIONS (crystal)
Ca       0.000000000   0.000000000   0.000000000



     Writing output data file Ca.save/
     Check: negative starting charge=   -0.000137
     NEW-OLD atomic charge density approx. for the potential

     Check: negative/imaginary core charge=   -0.000001    0.000000
     Check: negative starting charge=   -0.000110

     negative rho (up, down):  6.888E-05 0.000E+00
     extrapolated charge    7.90762, renormalised to   10.00000

     total cpu time spent up to now is       28.1 secs

     Self-consistent Calculation

     iteration #  1     ecut=    35.00 Ry     beta= 0.40
     Davidson diagonalization with overlap
     ethr =  1.00E-06,  avg # of iterations =  7.1

     total cpu time spent up to now is       29.0 secs

     total energy              =     -72.90076580 Ry
     Harris-Foulkes estimate   =     -78.96506005 Ry
     estimated scf accuracy    <       1.65062987 Ry

     iteration #  2     ecut=    35.00 Ry     beta= 0.40
     Davidson diagonalization with overlap
     ethr =  1.00E-02,  avg # of iterations =  3.6

     negative rho (up, down):  2.350E-06 0.000E+00

     total cpu time spent up to now is       29.7 secs

     total energy              =     -74.75991430 Ry
     Harris-Foulkes estimate   =     -74.95834616 Ry
     estimated scf accuracy    <       0.53091203 Ry

     iteration #  3     ecut=    35.00 Ry     beta= 0.40
     Davidson diagonalization with overlap
     ethr =  5.31E-03,  avg # of iterations =  1.0

     negative rho (up, down):  1.009E-05 0.000E+00

     total cpu time spent up to now is       30.3 secs

     total energy              =     -74.76322010 Ry
     Harris-Foulkes estimate   =     -74.77931504 Ry
     estimated scf accuracy    <       0.17848739 Ry

     iteration #  4     ecut=    35.00 Ry     beta= 0.40
     Davidson diagonalization with overlap
     ethr =  1.78E-03,  avg # of iterations =  1.0

     negative rho (up, down):  4.153E-05 0.000E+00

     total cpu time spent up to now is       30.8 secs

     total energy              =     -74.71750343 Ry
     Harris-Foulkes estimate   =     -74.76566353 Ry
     estimated scf accuracy    <       0.13880725 Ry

     iteration #  5     ecut=    35.00 Ry     beta= 0.40
     Davidson diagonalization with overlap
     ethr =  1.39E-03,  avg # of iterations =  1.0

     negative rho (up, down):  1.033E-04 0.000E+00

     total cpu time spent up to now is       31.3 secs

     total energy              =     -74.68617032 Ry
     Harris-Foulkes estimate   =     -74.72190423 Ry
     estimated scf accuracy    <       0.05278713 Ry

     iteration #  6     ecut=    35.00 Ry     beta= 0.40
     Davidson diagonalization with overlap
     ethr =  5.28E-04,  avg # of iterations =  2.9

     negative rho (up, down):  9.592E-05 0.000E+00

     total cpu time spent up to now is       32.0 secs

     total energy              =     -74.69870942 Ry
     Harris-Foulkes estimate   =     -74.69862594 Ry
     estimated scf accuracy    <       0.00020541 Ry

     iteration #  7     ecut=    35.00 Ry     beta= 0.40
     Davidson diagonalization with overlap
     ethr =  2.05E-06,  avg # of iterations =  3.4

     negative rho (up, down):  9.270E-05 0.000E+00

     total cpu time spent up to now is       32.7 secs

     total energy              =     -74.69880521 Ry
     Harris-Foulkes estimate   =     -74.69884601 Ry
     estimated scf accuracy    <       0.00040643 Ry

     iteration #  8     ecut=    35.00 Ry     beta= 0.40
     Davidson diagonalization with overlap
     ethr =  2.05E-06,  avg # of iterations =  1.0

     negative rho (up, down):  9.447E-05 0.000E+00

     total cpu time spent up to now is       33.2 secs

     total energy              =     -74.69873642 Ry
     Harris-Foulkes estimate   =     -74.69880845 Ry
     estimated scf accuracy    <       0.00024688 Ry

     iteration #  9     ecut=    35.00 Ry     beta= 0.40
     Davidson diagonalization with overlap
     ethr =  2.05E-06,  avg # of iterations =  1.0

     negative rho (up, down):  9.705E-05 0.000E+00

     total cpu time spent up to now is       33.7 secs

     total energy              =     -74.69866231 Ry
     Harris-Foulkes estimate   =     -74.69874250 Ry
     estimated scf accuracy    <       0.00011216 Ry

     iteration # 10     ecut=    35.00 Ry     beta= 0.40
     Davidson diagonalization with overlap
     ethr =  1.12E-06,  avg # of iterations =  2.9

     negative rho (up, down):  9.631E-05 0.000E+00

     total cpu time spent up to now is       34.5 secs

     total energy              =     -74.69868237 Ry
     Harris-Foulkes estimate   =     -74.69874074 Ry
     estimated scf accuracy    <       0.00011502 Ry

     iteration # 11     ecut=    35.00 Ry     beta= 0.40
     Davidson diagonalization with overlap
     ethr =  1.12E-06,  avg # of iterations =  1.9

     negative rho (up, down):  9.632E-05 0.000E+00

     total cpu time spent up to now is       35.0 secs

     total energy              =     -74.69869668 Ry
     Harris-Foulkes estimate   =     -74.69869681 Ry
     estimated scf accuracy    <       0.00000078 Ry

     iteration # 12     ecut=    35.00 Ry     beta= 0.40
     Davidson diagonalization with overlap
     ethr =  7.79E-09,  avg # of iterations =  2.9

     negative rho (up, down):  9.619E-05 0.000E+00

     total cpu time spent up to now is       35.6 secs

     total energy              =     -74.69869705 Ry
     Harris-Foulkes estimate   =     -74.69869721 Ry
     estimated scf accuracy    <       0.00000030 Ry

     iteration # 13     ecut=    35.00 Ry     beta= 0.40
     Davidson diagonalization with overlap
     ethr =  3.01E-09,  avg # of iterations =  2.4

     negative rho (up, down):  9.620E-05 0.000E+00

     total cpu time spent up to now is       36.2 secs

     End of self-consistent calculation

          k = 0.0000 0.0000 0.0000 (   941 PWs)   bands (ev):

   -32.7721 -13.5379 -13.5379 -13.5379   3.7968  11.2515  11.2515  11.2515
    12.9335

     occupation numbers 
     1.0000   1.0000   1.0000   1.0000   1.0000   0.0000   0.0000   0.0000
     0.0000

          k =-0.1897 0.1897-0.1897 (   968 PWs)   bands (ev):

   -32.7519 -13.6808 -13.5552 -13.5552   4.4572  10.5951  11.4580  11.4580
    12.7715

     occupation numbers 
     1.0000   1.0000   1.0000   1.0000   1.0000   0.0000   0.0000   0.0000
     0.0000

          k =-0.3794 0.3794-0.3794 (   968 PWs)   bands (ev):

   -32.7113 -13.9557 -13.5895 -13.5895   6.0689   9.5220  11.2816  11.2816
    13.3721

     occupation numbers 
     1.0000   1.0000   1.0000   1.0000   1.0000   0.0000   0.0000   0.0000
     0.0000

          k = 0.5690-0.5690 0.5690 (   978 PWs)   bands (ev):

   -32.6908 -14.0882 -13.6065 -13.6065   7.2404   8.9016  11.0548  11.0548
    14.0317

     occupation numbers 
     1.0000   1.0000   1.0000   1.0000   1.0000   0.0001   0.0000   0.0000
     0.0000

          k =-0.0000 0.3794-0.0000 (   966 PWs)   bands (ev):

   -32.7453 -13.6768 -13.5859 -13.5859   4.6683  10.3780  11.6814  11.6814
    11.9592

     occupation numbers 
     1.0000   1.0000   1.0000   1.0000   1.0000   0.0000   0.0000   0.0000
     0.0000

          k =-0.1897 0.5690-0.1897 (   981 PWs)   bands (ev):

   -32.7115 -13.8768 -13.6294 -13.6268   5.9609   9.6087  10.8724  11.8555
    12.7418

     occupation numbers 
     1.0000   1.0000   1.0000   1.0000   1.0000   0.0000   0.0000   0.0000
     0.0000

          k = 0.7587-0.3794 0.7587 (   992 PWs)   bands (ev):

   -32.6843 -14.0307 -13.6886 -13.6372   7.5620   8.8033  10.4627  11.5588
    14.1443

     occupation numbers 
     1.0000   1.0000   1.0000   1.0000   1.0000   0.0045   0.0000   0.0000
     0.0000

          k = 0.5690-0.1897 0.5690 (   975 PWs)   bands (ev):

   -32.6911 -13.9888 -13.7069 -13.6069   7.1102   9.2097  10.4206  11.5596
    13.1855

     occupation numbers 
     1.0000   1.0000   1.0000   1.0000   1.0000   0.0000   0.0000   0.0000
     0.0000

          k = 0.3794-0.0000 0.3794 (   975 PWs)   bands (ev):

   -32.7250 -13.8135 -13.6426 -13.5658   5.4508  10.0024  11.0644  11.9856
    12.0686

     occupation numbers 
     1.0000   1.0000   1.0000   1.0000   1.0000   0.0000   0.0000   0.0000
     0.0000

          k =-0.0000 0.7587-0.0000 (  1002 PWs)   bands (ev):

   -32.6915 -13.9315 -13.6810 -13.6810   6.6045   9.1247  10.4861  12.9674
    12.9674

     occupation numbers 
     1.0000   1.0000   1.0000   1.0000   1.0000   0.0000   0.0000   0.0000
     0.0000

          k = 0.9484-0.1897 0.9484 (   987 PWs)   bands (ev):

   -32.6711 -13.9953 -13.7650 -13.6980   7.6043   8.8404  10.0930  12.9125
    14.3789

     occupation numbers 
     1.0000   1.0000   1.0000   1.0000   1.0000   0.0014   0.0000   0.0000
     0.0000

          k = 0.7587-0.0000 0.7587 (   981 PWs)   bands (ev):

   -32.6709 -13.9051 -13.8992 -13.6613   8.3297   8.8274   9.6658  12.3050
    14.8003

     occupation numbers 
     1.0000   1.0000   1.0000   1.0000   0.9896   0.0021   0.0000   0.0000
     0.0000

          k = 0.0000-1.1381 0.0000 (   982 PWs)   bands (ev):

   -32.6645 -14.0487 -13.7281 -13.7281   7.4205   8.6292  10.5511  14.0283
    14.3315

     occupation numbers 
     1.0000   1.0000   1.0000   1.0000   1.0000   0.2116   0.0000   0.0000
     0.0000

          k = 0.7587-0.3794 1.1381 (   983 PWs)   bands (ev):

   -32.6845 -13.9463 -13.7546 -13.6541   7.2533   9.2904   9.9074  12.2920
    13.0900

     occupation numbers 
     1.0000   1.0000   1.0000   1.0000   1.0000   0.0000   0.0000   0.0000
     0.0000

          k = 0.5690-0.1897 0.9484 (   988 PWs)   bands (ev):

   -32.6709 -13.9603 -13.8210 -13.6843   8.4344   8.6859   9.7337  12.0408
    13.7977

     occupation numbers 
     1.0000   1.0000   1.0000   1.0000   0.8895   0.0823   0.0000   0.0000
     0.0000

          k =-0.3794-1.1381 0.0000 (   978 PWs)   bands (ev):

   -32.6643 -13.9702 -13.8099 -13.7350   8.0331   8.9683   9.8651  12.5034
    14.3345

     occupation numbers 
     1.0000   1.0000   1.0000   1.0000   1.0000   0.0000   0.0000   0.0000
     0.0000

     the Fermi energy is     8.5522 ev

!    total energy              =     -74.69869710 Ry
     Harris-Foulkes estimate   =     -74.69869710 Ry
     estimated scf accuracy    <          1.3E-09 Ry

     The total energy is the sum of the following terms:

     one-electron contribution =     -29.06468601 Ry
     hartree contribution      =      16.49004432 Ry
     xc contribution           =     -11.91895527 Ry
     ewald contribution        =     -50.20445323 Ry
     smearing contrib. (-TS)   =      -0.00064691 Ry

     convergence has been achieved in  13 iterations

     negative rho (up, down):  9.620E-05 0.000E+00

     Forces acting on atoms (cartesian axes, Ry/au):

     atom    1 type  1   force =     0.00000000    0.00000000    0.00000000
     The non-local contrib.  to forces
     atom    1 type  1   force =    -0.00000000   -0.00000000   -0.00000000
     The ionic contribution  to forces
     atom    1 type  1   force =     0.00000000    0.00000000    0.00000000
     The local contribution  to forces
     atom    1 type  1   force =    -0.00000000    0.00000000    0.00000000
     The core correction contribution to forces
     atom    1 type  1   force =    -0.00000000   -0.00000000    0.00000000
     The Hubbard contrib.    to forces
     atom    1 type  1   force =     0.00000000    0.00000000    0.00000000
     The SCF correction term to forces
     atom    1 type  1   force =     0.00000000    0.00000000   -0.00000000

     Total force =     0.000000     Total SCF correction =     0.000000


     Computing stress (Cartesian axis) and pressure


[...]
A_2u   1.00  1.00  1.00 -1.00 -1.00 -1.00 -1.00 -1.00  1.00  1.00
E_u    2.00 -1.00  2.00  0.00  0.00 -2.00  1.00 -2.00  0.00  0.00
T_1u   3.00  0.00 -1.00  1.00 -1.00 -3.00  0.00  1.00 -1.00  1.00
T_2u   3.00  0.00 -1.00 -1.00  1.00 -3.00  0.00  1.00  1.00 -1.00

     the symmetry operations in each class and the name of the first element:

     E        1
          identity                                               
     8C3     17   19   20   18   24   21   22   23
          120 deg rotation - cart. axis [-1,-1,-1]               
     3C2      2    4    3
          180 deg rotation - cart. axis [0,0,1]                  
     6C4      7    8   15   16   12   11
           90 deg rotation - cart. axis [0,0,-1]                 
     6C2'     5    6   14   13   10    9
          180 deg rotation - cart. axis [1,1,0]                  
     i       25
          inversion                                              
     8S6     41   43   44   42   48   45   46   47
          inv. 120 deg rotation - cart. axis [-1,-1,-1]          
     3s_h    26   28   27
          inv. 180 deg rotation - cart. axis [0,0,1]             
     6S4     31   32   39   40   36   35
          inv.  90 deg rotation - cart. axis [0,0,-1]            
     6s_d    29   30   38   37   34   33
          inv. 180 deg rotation - cart. axis [1,1,0]             

   Cartesian axes

     site n.     atom                  positions (alat units)
         1           Ca  tau(   1) = (   0.0000000   0.0000000   0.0000000  )

   Crystallographic axes

     site n.     atom                  positions (cryst. coord.)
         1           Ca  tau(   1) = (  0.0000000  0.0000000  0.0000000  )

     number of k points=    16  gaussian smearing, width (Ry)=  0.0100
                       cart. coord. in units 2pi/alat
        k(    1) = (   0.0000000   0.0000000   0.0000000), wk =   0.0092593
        k(    2) = (  -0.1919131   0.1919131  -0.1919131), wk =   0.0740741
        k(    3) = (  -0.3838261   0.3838261  -0.3838261), wk =   0.0740741
        k(    4) = (   0.5757392  -0.5757392   0.5757392), wk =   0.0370370
        k(    5) = (   0.0000000   0.3838261  -0.0000000), wk =   0.0555556
        k(    6) = (  -0.1919131   0.5757392  -0.1919131), wk =   0.2222222
        k(    7) = (   0.7676522  -0.3838261   0.7676522), wk =   0.2222222
        k(    8) = (   0.5757392  -0.1919131   0.5757392), wk =   0.2222222
        k(    9) = (   0.3838261   0.0000000   0.3838261), wk =   0.1111111
        k(   10) = (   0.0000000   0.7676522  -0.0000000), wk =   0.0555556
        k(   11) = (   0.9595653  -0.1919131   0.9595653), wk =   0.2222222
        k(   12) = (   0.7676522   0.0000000   0.7676522), wk =   0.1111111
        k(   13) = (   0.0000000  -1.1514784   0.0000000), wk =   0.0277778
        k(   14) = (   0.7676522  -0.3838261   1.1514784), wk =   0.2222222
        k(   15) = (   0.5757392  -0.1919131   0.9595653), wk =   0.2222222
        k(   16) = (  -0.3838261  -1.1514784   0.0000000), wk =   0.1111111

                       cryst. coord.
        k(    1) = (   0.0000000   0.0000000   0.0000000), wk =   0.0092593
        k(    2) = (   0.0000000   0.0000000   0.1666667), wk =   0.0740741
        k(    3) = (   0.0000000   0.0000000   0.3333333), wk =   0.0740741
        k(    4) = (   0.0000000   0.0000000  -0.5000000), wk =   0.0370370
        k(    5) = (  -0.0000000   0.1666667   0.1666667), wk =   0.0555556
        k(    6) = (  -0.0000000   0.1666667   0.3333333), wk =   0.2222222
        k(    7) = (   0.0000000   0.1666667  -0.5000000), wk =   0.2222222
        k(    8) = (   0.0000000   0.1666667  -0.3333333), wk =   0.2222222
        k(    9) = (  -0.0000000   0.1666667  -0.1666667), wk =   0.1111111
        k(   10) = (  -0.0000000   0.3333333   0.3333333), wk =   0.0555556
        k(   11) = (   0.0000000   0.3333333  -0.5000000), wk =   0.2222222
        k(   12) = (  -0.0000000   0.3333333  -0.3333333), wk =   0.1111111
        k(   13) = (   0.0000000  -0.5000000  -0.5000000), wk =   0.0277778
        k(   14) = (   0.1666667   0.3333333  -0.5000000), wk =   0.2222222
        k(   15) = (   0.1666667   0.3333333  -0.3333333), wk =   0.2222222
        k(   16) = (   0.1666667  -0.5000000  -0.3333333), wk =   0.1111111

     Dense  grid:    17261 G-vectors     FFT dimensions: (  40,  40,  40)

     Smooth grid:     5065 G-vectors     FFT dimensions: (  25,  25,  25)

     Dynamical RAM for                 wfc:       0.09 MB

     Dynamical RAM for     wfc (w. buffer):       1.50 MB

     Dynamical RAM for           str. fact:       0.26 MB

     Dynamical RAM for           local pot:       0.20 MB

     Dynamical RAM for          nlocal pot:       0.18 MB

     Dynamical RAM for                qrad:       4.71 MB

     Dynamical RAM for          rho,v,vnew:       2.25 MB

     Dynamical RAM for               rhoin:       0.75 MB

     Dynamical RAM for            rho*nmix:       4.21 MB

     Dynamical RAM for           G-vectors:       1.03 MB

     Dynamical RAM for          h,s,v(r/c):       0.06 MB

     Dynamical RAM for          <psi|beta>:       0.00 MB

     Dynamical RAM for                 psi:       0.35 MB

     Dynamical RAM for                hpsi:       0.35 MB

     Dynamical RAM for                spsi:       0.35 MB

     Dynamical RAM for      wfcinit/wfcrot:       0.20 MB

     Dynamical RAM for           addusdens:      49.25 MB

     Dynamical RAM for          addusforce:      49.39 MB

     Dynamical RAM for         addusstress:      52.94 MB

     Estimated static dynamical RAM per process >      18.07 MB

     Estimated max dynamical RAM per process >      71.01 MB

     Check: negative/imaginary core charge=   -0.000004    0.000000

     Initial potential from superposition of free atoms
     Check: negative starting charge=   -0.000150

     starting charge    9.99454, renormalised to   10.00000

     negative rho (up, down):  1.496E-04 0.000E+00
     Starting wfcs are   10 randomized atomic wfcs

     total cpu time spent up to now is       57.1 secs

     Self-consistent Calculation

     iteration #  1     ecut=    35.00 Ry     beta= 0.40
     Davidson diagonalization with overlap
     ethr =  1.00E-06,  avg # of iterations =  7.8

     negative rho (up, down):  1.435E-04 0.000E+00

     total cpu time spent up to now is       57.7 secs

     total energy              =     -74.69181668 Ry
     Harris-Foulkes estimate   =     -74.69203956 Ry
     estimated scf accuracy    <       0.00353188 Ry

     iteration #  2     ecut=    35.00 Ry     beta= 0.40
     Davidson diagonalization with overlap
     ethr =  3.53E-05,  avg # of iterations =  1.0

     negative rho (up, down):  1.369E-04 0.000E+00

     total cpu time spent up to now is       58.1 secs

     total energy              =     -74.69186924 Ry
     Harris-Foulkes estimate   =     -74.69187560 Ry
     estimated scf accuracy    <       0.00114203 Ry

     iteration #  3     ecut=    35.00 Ry     beta= 0.40
     Davidson diagonalization with overlap
     ethr =  1.14E-05,  avg # of iterations =  1.0

     negative rho (up, down):  1.367E-04 0.000E+00

     total cpu time spent up to now is       58.4 secs

     total energy              =     -74.69189733 Ry
     Harris-Foulkes estimate   =     -74.69190783 Ry
     estimated scf accuracy    <       0.00003915 Ry

     iteration #  4     ecut=    35.00 Ry     beta= 0.40
     Davidson diagonalization with overlap
     ethr =  3.92E-07,  avg # of iterations =  2.5

     negative rho (up, down):  1.366E-04 0.000E+00

     total cpu time spent up to now is       58.8 secs

     total energy              =     -74.69190873 Ry
     Harris-Foulkes estimate   =     -74.69190869 Ry
     estimated scf accuracy    <       0.00000023 Ry

     iteration #  5     ecut=    35.00 Ry     beta= 0.40
     Davidson diagonalization with overlap
     ethr =  2.31E-09,  avg # of iterations =  2.9

     negative rho (up, down):  1.363E-04 0.000E+00

     total cpu time spent up to now is       59.1 secs

     total energy              =     -74.69190887 Ry
     Harris-Foulkes estimate   =     -74.69190881 Ry
     estimated scf accuracy    <       0.00000010 Ry

     iteration #  6     ecut=    35.00 Ry     beta= 0.40
     Davidson diagonalization with overlap
     ethr =  1.00E-09,  avg # of iterations =  1.9

     negative rho (up, down):  1.363E-04 0.000E+00

     total cpu time spent up to now is       59.5 secs

     End of self-consistent calculation

          k = 0.0000 0.0000 0.0000 (   645 PWs)   bands (ev):

   -32.3592 -13.0957 -13.0957 -13.0957   4.1200  11.6461  11.6461  11.6461
    13.3924

     occupation numbers 
     1.0000   1.0000   1.0000   1.0000   1.0000   0.0000   0.0000   0.0000
     0.0000

          k =-0.1919 0.1919-0.1919 (   643 PWs)   bands (ev):

   -32.3359 -13.2558 -13.1149 -13.1149   4.8022  10.9728  11.8607  11.8607
    13.2227

     occupation numbers 
     1.0000   1.0000   1.0000   1.0000   1.0000   0.0000   0.0000   0.0000
     0.0000

          k =-0.3838 0.3838-0.3838 (   622 PWs)   bands (ev):

   -32.2890 -13.5626 -13.1527 -13.1527   6.4429   9.9073  11.6772  11.6772
    13.8481

     occupation numbers 
     1.0000   1.0000   1.0000   1.0000   1.0000   0.0000   0.0000   0.0000
     0.0000

          k = 0.5757-0.5757 0.5757 (   628 PWs)   bands (ev):

   -32.2653 -13.7104 -13.1715 -13.1715   7.5766   9.3589  11.4418  11.4418
    14.5351

     occupation numbers 
     1.0000   1.0000   1.0000   1.0000   1.0000   0.0000   0.0000   0.0000
     0.0000

          k = 0.0000 0.3838-0.0000 (   653 PWs)   bands (ev):

   -32.3283 -13.2514 -13.1492 -13.1492   5.0197  10.7403  12.0958  12.0958
    12.3790

     occupation numbers 
     1.0000   1.0000   1.0000   1.0000   1.0000   0.0000   0.0000   0.0000
     0.0000

          k =-0.1919 0.5757-0.1919 (   630 PWs)   bands (ev):

   -32.2893 -13.4746 -13.1976 -13.1945   6.3398   9.9619  11.2569  12.2773
    13.2009

     occupation numbers 
     1.0000   1.0000   1.0000   1.0000   1.0000   0.0000   0.0000   0.0000
     0.0000

          k = 0.7677-0.3838 0.7677 (   640 PWs)   bands (ev):

   -32.2578 -13.6461 -13.2636 -13.2059   7.9291   9.1970  10.8432  11.9672
    14.5805

     occupation numbers 
     1.0000   1.0000   1.0000   1.0000   1.0000   0.0015   0.0000   0.0000
     0.0000

          k = 0.5757-0.1919 0.5757 (   639 PWs)   bands (ev):

   -32.2656 -13.5994 -13.2840 -13.1721   7.4965   9.5927  10.7933  11.9658
    13.6526

     occupation numbers 
     1.0000   1.0000   1.0000   1.0000   1.0000   0.0000   0.0000   0.0000
     0.0000

          k = 0.3838 0.0000 0.3838 (   640 PWs)   bands (ev):

   -32.3048 -13.4040 -13.2125 -13.1265   5.8228  10.3674  11.4571  12.4059
    12.4921

     occupation numbers 
     1.0000   1.0000   1.0000   1.0000   1.0000   0.0000   0.0000   0.0000
     0.0000

          k = 0.0000 0.7677-0.0000 (   640 PWs)   bands (ev):

   -32.2661 -13.5354 -13.2548 -13.2548   6.9709   9.4470  10.8983  13.4360
    13.4360

     occupation numbers 
     1.0000   1.0000   1.0000   1.0000   1.0000   0.0000   0.0000   0.0000
     0.0000

          k = 0.9596-0.1919 0.9596 (   650 PWs)   bands (ev):

   -32.2426 -13.6061 -13.3488 -13.2736   7.9374   9.1718  10.5299  13.3759
    14.6854

     occupation numbers 
     1.0000   1.0000   1.0000   1.0000   1.0000   0.0034   0.0000   0.0000
     0.0000

          k = 0.7677 0.0000 0.7677 (   650 PWs)   bands (ev):

   -32.2424 -13.5058 -13.4988 -13.2327   8.7040   9.1614  10.0767  12.7439
    14.0232

     occupation numbers 
     1.0000   1.0000   1.0000   1.0000   0.9844   0.0046   0.0000   0.0000
     0.0000

          k = 0.0000-1.1515 0.0000 (   636 PWs)   bands (ev):

   -32.2350 -13.6654 -13.3071 -13.3071   7.7134   8.9367  11.0637  14.5325
    14.8472

     occupation numbers 
     1.0000   1.0000   1.0000   1.0000   1.0000   0.3951   0.0000   0.0000
     0.0000

          k = 0.7677-0.3838 1.1515 (   651 PWs)   bands (ev):

   -32.2581 -13.5519 -13.3373 -13.2249   7.6399   9.6429  10.2752  12.7365
    13.5577

     occupation numbers 
     1.0000   1.0000   1.0000   1.0000   1.0000   0.0000   0.0000   0.0000
     0.0000

          k = 0.5757-0.1919 0.9596 (   648 PWs)   bands (ev):

   -32.2424 -13.5672 -13.4115 -13.2586   8.7921   9.0614  10.1137  12.4761
    14.2948

     occupation numbers 
     1.0000   1.0000   1.0000   1.0000   0.8921   0.0592   0.0000   0.0000
     0.0000

          k =-0.3838-1.1515 0.0000 (   654 PWs)   bands (ev):

   -32.2348 -13.5780 -13.3989 -13.3153   8.3472   9.3131  10.3022  12.9643
    14.8501

     occupation numbers 
     1.0000   1.0000   1.0000   1.0000   1.0000   0.0000   0.0000   0.0000
     0.0000

     the Fermi energy is     8.9112 ev

!    total energy              =     -74.69190888 Ry
     Harris-Foulkes estimate   =     -74.69190888 Ry
     estimated scf accuracy    <          9.5E-09 Ry

     The total energy is the sum of the following terms:

     one-electron contribution =     -28.15882059 Ry
     hartree contribution      =      16.19898998 Ry
     xc contribution           =     -11.93651517 Ry
     ewald contribution        =     -50.79494568 Ry
     smearing contrib. (-TS)   =      -0.00061741 Ry

     convergence has been achieved in   6 iterations

     negative rho (up, down):  1.363E-04 0.000E+00

     Forces acting on atoms (cartesian axes, Ry/au):

     atom    1 type  1   force =     0.00000000    0.00000000    0.00000000
     The non-local contrib.  to forces
     atom    1 type  1   force =     0.00000000    0.00000000    0.00000000
     The ionic contribution  to forces
     atom    1 type  1   force =     0.00000000    0.00000000    0.00000000
     The local contribution  to forces
     atom    1 type  1   force =     0.00000000    0.00000000   -0.00000000
     The core correction contribution to forces
     atom    1 type  1   force =     0.00000000    0.00000000   -0.00000000
     The Hubbard contrib.    to forces
     atom    1 type  1   force =     0.00000000    0.00000000    0.00000000
     The SCF correction term to forces
     atom    1 type  1   force =     0.00000000   -0.00000000    0.00000000

     Total force =     0.000000     Total SCF correction =     0.000000


     Computing stress (Cartesian axis) and pressure


     negative rho (up, down):  1.363E-04 0.000E+00
          total   stress  (Ry/bohr**3)                   (kbar)     P=  149.07
   0.00101334   0.00000000   0.00000000        149.07      0.00      0.00
   0.00000000   0.00101334  -0.00000000          0.00    149.07     -0.00
   0.00000000  -0.00000000   0.00101334          0.00     -0.00    149.07

     kinetic stress (kbar)   6896.11     -0.00     -0.00
                               -0.00   6896.11      0.00
                                0.00      0.00   6896.11

     local   stress (kbar)  -2661.47     -0.00      0.00
                               -0.00  -2661.47     -0.00
                                0.00     -0.00  -2661.47

     nonloc. stress (kbar)   8098.56     -0.00      0.00
                               -0.00   8098.56     -0.00
                                0.00     -0.00   8098.56

     hartree stress (kbar)   4320.53      0.00      0.00
                                0.00   4320.53      0.00
                                0.00      0.00   4320.53

     exc-cor stress (kbar)  -1609.68      0.00     -0.00
                                0.00  -1609.68      0.00
                               -0.00      0.00  -1609.68

     corecor stress (kbar)  -1347.16     -0.00      0.00
                               -0.00  -1347.16     -0.00
                                0.00     -0.00  -1347.16

     ewald   stress (kbar) -13547.82     -0.00      0.00
                               -0.00 -13547.82      0.00
                                0.00      0.00 -13547.82

     hubbard stress (kbar)      0.00      0.00      0.00
                                0.00      0.00      0.00
                                0.00      0.00      0.00

     london  stress (kbar)      0.00      0.00      0.00
                                0.00      0.00      0.00
                                0.00      0.00      0.00

     DFT-D3  stress (kbar)      0.00      0.00      0.00
                                0.00      0.00      0.00
                                0.00      0.00      0.00

     XDM     stress (kbar)      0.00      0.00      0.00
                                0.00      0.00      0.00
                                0.00      0.00      0.00

     dft-nl  stress (kbar)      0.00      0.00      0.00
                                0.00      0.00      0.00
                                0.00      0.00      0.00

     TS-vdW  stress (kbar)      0.00      0.00      0.00
                                0.00      0.00      0.00
                                0.00      0.00      0.00



     Writing output data file Ca.save/
 
     init_run     :      2.50s CPU      2.61s WALL (       2 calls)
     electrons    :     36.91s CPU     39.50s WALL (       7 calls)
     update_pot   :      4.69s CPU      4.71s WALL (       5 calls)
     forces       :      3.82s CPU      3.94s WALL (       7 calls)
     stress       :      7.91s CPU      8.28s WALL (       7 calls)

     Called by init_run:
     wfcinit      :      0.24s CPU      0.24s WALL (       2 calls)
     wfcinit:atom :      0.01s CPU      0.01s WALL (      32 calls)
     wfcinit:wfcr :      0.21s CPU      0.22s WALL (      32 calls)
     potinit      :      0.29s CPU      0.30s WALL (       2 calls)
     hinit0       :      1.85s CPU      1.86s WALL (       2 calls)

     Called by electrons:
     c_bands      :     22.98s CPU     23.29s WALL (      66 calls)
     sum_band     :      7.78s CPU      8.89s WALL (      66 calls)
     v_of_rho     :      3.13s CPU      3.18s WALL (      72 calls)
     v_h          :      0.13s CPU      0.13s WALL (      72 calls)
     v_xc         :      3.57s CPU      3.62s WALL (      86 calls)
     newd         :      3.18s CPU      4.39s WALL (      72 calls)
     mix_rho      :      0.27s CPU      0.28s WALL (      66 calls)

     Called by c_bands:
     init_us_2    :      0.73s CPU      0.74s WALL (    2368 calls)
     cegterg      :     21.37s CPU     21.59s WALL (    1056 calls)

     Called by sum_band:
     sum_band:bec :      0.01s CPU      0.01s WALL (    1056 calls)
     addusdens    :      3.63s CPU      4.70s WALL (      66 calls)

     Called by *egterg:
     h_psi        :     18.89s CPU     19.06s WALL (    3774 calls)
     s_psi        :      0.38s CPU      0.39s WALL (    3774 calls)
     g_psi        :      0.12s CPU      0.12s WALL (    2686 calls)
     cdiaghg      :      0.59s CPU      0.60s WALL (    3646 calls)
     cegterg:over :      0.54s CPU      0.55s WALL (    2686 calls)
     cegterg:upda :      0.43s CPU      0.43s WALL (    2686 calls)
     cegterg:last :      0.21s CPU      0.21s WALL (    1142 calls)

     Called by h_psi:
     h_psi:pot    :     18.83s CPU     19.00s WALL (    3774 calls)
     h_psi:calbec :      0.39s CPU      0.40s WALL (    3774 calls)
     vloc_psi     :     18.02s CPU     18.16s WALL (    3774 calls)
     add_vuspsi   :      0.39s CPU      0.40s WALL (    3774 calls)

     General routines
     calbec       :      0.57s CPU      0.58s WALL (    5390 calls)
     fft          :      1.53s CPU      1.53s WALL (    1110 calls)
     ffts         :      0.04s CPU      0.04s WALL (     138 calls)
     fftw         :     19.61s CPU     19.72s WALL (   62644 calls)
     interpolate  :      0.14s CPU      0.14s WALL (      72 calls)
 
 
     PWSCF        :    56.46s CPU        59.88s WALL

 
   This run was terminated on:  17:15:28   1Apr2021            

=------------------------------------------------------------------------------=
   JOB DONE.
=------------------------------------------------------------------------------=
