
     Program PWSCF v.6.3MaX starts on  2Apr2021 at 16:44:32 

     This program is part of the open-source Quantum ESPRESSO suite
     for quantum simulation of materials; please cite
         "P. Giannozzi et al., J. Phys.:Condens. Matter 21 395502 (2009);
         "P. Giannozzi et al., J. Phys.:Condens. Matter 29 465901 (2017);
          URL http://www.quantum-espresso.org", 
     in publications or presentations arising from this work. More details at
     http://www.quantum-espresso.org/quote

     Serial version
     Waiting for input...
     Reading input from standard input

     Current dimensions of program PWSCF are:
     Max number of different atomic species (ntypx) = 10
     Max number of k-points (npk) =  40000
     Max angular momentum in pseudopotentials (lmaxx) =  3
 
     G-vector sticks info
     --------------------
     sticks:   dense  smooth     PW     G-vecs:    dense   smooth      PW
     Sum        1131     507    183                23447     6965    1555
 


     bravais-lattice index     =            7
     lattice parameter (alat)  =       6.0471  a.u.
     unit-cell volume          =     248.7706 (a.u.)^3
     number of atoms/cell      =            3
     number of atomic types    =            2
     number of electrons       =        22.00
     number of Kohn-Sham states=           15
     kinetic-energy cutoff     =      35.0000  Ry
     charge density cutoff     =     315.0000  Ry
     convergence threshold     =      1.0E-06
     mixing beta               =       0.4000
     number of iterations used =            8  plain     mixing
     Exchange-correlation      = SLA PW PBE PBE ( 1  4  3  4 0 0)
     nstep                     =          100


     celldm(1)=   6.047124  celldm(2)=   0.000000  celldm(3)=   2.250000
     celldm(4)=   0.000000  celldm(5)=   0.000000  celldm(6)=   0.000000

     crystal axes: (cart. coord. in units of alat)
               a(1) = (   0.500000  -0.500000   1.125000 )  
               a(2) = (   0.500000   0.500000   1.125000 )  
               a(3) = (  -0.500000  -0.500000   1.125000 )  

     reciprocal axes: (cart. coord. in units 2 pi/alat)
               b(1) = (  1.000000 -1.000000  0.000000 )  
               b(2) = (  0.000000  1.000000  0.444444 )  
               b(3) = ( -1.000000  0.000000  0.444444 )  


     PseudoPot. # 1 for Ca read from file:
     ../pseudo/Ca.pbe-nsp-van.UPF
     MD5 check sum: cdab9c70410076c6adf7f3c9fd3601e0
     Pseudo is Ultrasoft + core correction, Zval = 10.0
     Generated by new atomic code, or converted to UPF format
     Using radial grid of  845 points,  6 beta functions with: 
                l(1) =   0
                l(2) =   0
                l(3) =   1
                l(4) =   1
                l(5) =   2
                l(6) =   2
     Q(r) pseudized with  6 coefficients,  rinner =    1.200   1.200   1.200
                                                       1.200   1.200

     PseudoPot. # 2 for O  read from file:
     ../pseudo/O.pbe-van_ak.UPF
     MD5 check sum: 572909515f9aa9498032b6eb5528d5f9
     Pseudo is Ultrasoft, Zval =  6.0
     Generated by new atomic code, or converted to UPF format
     Using radial grid of  737 points,  4 beta functions with: 
                l(1) =   0
                l(2) =   0
                l(3) =   1
                l(4) =   1
     Q(r) pseudized with  8 coefficients,  rinner =    0.800   0.800   0.800


     atomic species   valence    mass     pseudopotential
        Ca            10.00    40.07800     Ca( 1.00)
        O              6.00    15.99940     O ( 1.00)

     16 Sym. Ops., with inversion, found


                                    s                        frac. trans.

      isym =  1     identity                                     

 cryst.   s( 1) = (     1          0          0      )
                  (     0          1          0      )
                  (     0          0          1      )

 cart.    s( 1) = (  1.0000000  0.0000000  0.0000000 )
                  (  0.0000000  1.0000000  0.0000000 )
                  (  0.0000000  0.0000000  1.0000000 )


      isym =  2     180 deg rotation - cart. axis [0,0,1]        

 cryst.   s( 2) = (    -1          1          1      )
                  (     0          0          1      )
                  (     0          1          0      )

 cart.    s( 2) = ( -1.0000000  0.0000000  0.0000000 )
                  (  0.0000000 -1.0000000  0.0000000 )
                  (  0.0000000  0.0000000  1.0000000 )


      isym =  3     180 deg rotation - cart. axis [0,1,0]        

 cryst.   s( 3) = (     0         -1          0      )
                  (    -1          0          0      )
                  (     1         -1         -1      )

 cart.    s( 3) = ( -1.0000000  0.0000000  0.0000000 )
                  (  0.0000000  1.0000000  0.0000000 )
                  (  0.0000000  0.0000000 -1.0000000 )


      isym =  4     180 deg rotation - cart. axis [1,0,0]        

 cryst.   s( 4) = (     0          0         -1      )
                  (     1         -1         -1      )
                  (    -1          0          0      )

 cart.    s( 4) = (  1.0000000  0.0000000  0.0000000 )
                  (  0.0000000 -1.0000000  0.0000000 )
                  (  0.0000000  0.0000000 -1.0000000 )


      isym =  5     180 deg rotation - cart. axis [1,1,0]        

 cryst.   s( 5) = (    -1          0          0      )
                  (     0          0         -1      )
                  (     0         -1          0      )

 cart.    s( 5) = (  0.0000000  1.0000000  0.0000000 )
                  (  1.0000000  0.0000000  0.0000000 )
                  (  0.0000000  0.0000000 -1.0000000 )


      isym =  6     180 deg rotation - cart. axis [1,-1,0]       

 cryst.   s( 6) = (     1         -1         -1      )
                  (     0         -1          0      )
                  (     0          0         -1      )

 cart.    s( 6) = (  0.0000000 -1.0000000  0.0000000 )
                  ( -1.0000000  0.0000000  0.0000000 )
                  (  0.0000000  0.0000000 -1.0000000 )


      isym =  7      90 deg rotation - cart. axis [0,0,-1]       

 cryst.   s( 7) = (     0          0          1      )
                  (     1          0          0      )
                  (    -1          1          1      )

 cart.    s( 7) = (  0.0000000  1.0000000  0.0000000 )
                  ( -1.0000000  0.0000000  0.0000000 )
                  (  0.0000000  0.0000000  1.0000000 )


      isym =  8      90 deg rotation - cart. axis [0,0,1]        

 cryst.   s( 8) = (     0          1          0      )
                  (    -1          1          1      )
                  (     1          0          0      )

 cart.    s( 8) = (  0.0000000 -1.0000000  0.0000000 )
                  (  1.0000000  0.0000000  0.0000000 )
                  (  0.0000000  0.0000000  1.0000000 )


      isym =  9     inversion                                    

 cryst.   s( 9) = (    -1          0          0      )
                  (     0         -1          0      )
                  (     0          0         -1      )

 cart.    s( 9) = ( -1.0000000  0.0000000  0.0000000 )
                  (  0.0000000 -1.0000000  0.0000000 )
                  (  0.0000000  0.0000000 -1.0000000 )


      isym = 10     inv. 180 deg rotation - cart. axis [0,0,1]   

 cryst.   s(10) = (     1         -1         -1      )
                  (     0          0         -1      )
                  (     0         -1          0      )

 cart.    s(10) = (  1.0000000  0.0000000  0.0000000 )
                  (  0.0000000  1.0000000  0.0000000 )
                  (  0.0000000  0.0000000 -1.0000000 )


      isym = 11     inv. 180 deg rotation - cart. axis [0,1,0]   

 cryst.   s(11) = (     0          1          0      )
                  (     1          0          0      )
                  (    -1          1          1      )

 cart.    s(11) = (  1.0000000  0.0000000  0.0000000 )
                  (  0.0000000 -1.0000000  0.0000000 )
                  (  0.0000000  0.0000000  1.0000000 )


      isym = 12     inv. 180 deg rotation - cart. axis [1,0,0]   

 cryst.   s(12) = (     0          0          1      )
                  (    -1          1          1      )
                  (     1          0          0      )

 cart.    s(12) = ( -1.0000000  0.0000000  0.0000000 )
                  (  0.0000000  1.0000000  0.0000000 )
                  (  0.0000000  0.0000000  1.0000000 )


      isym = 13     inv. 180 deg rotation - cart. axis [1,1,0]   

 cryst.   s(13) = (     1          0          0      )
                  (     0          0          1      )
                  (     0          1          0      )

 cart.    s(13) = (  0.0000000 -1.0000000  0.0000000 )
                  ( -1.0000000  0.0000000  0.0000000 )
                  (  0.0000000  0.0000000  1.0000000 )


      isym = 14     inv. 180 deg rotation - cart. axis [1,-1,0]  

 cryst.   s(14) = (    -1          1          1      )
                  (     0          1          0      )
                  (     0          0          1      )

 cart.    s(14) = (  0.0000000  1.0000000  0.0000000 )
                  (  1.0000000  0.0000000  0.0000000 )
                  (  0.0000000  0.0000000  1.0000000 )


      isym = 15     inv.  90 deg rotation - cart. axis [0,0,-1]  

 cryst.   s(15) = (     0          0         -1      )
                  (    -1          0          0      )
                  (     1         -1         -1      )

 cart.    s(15) = (  0.0000000 -1.0000000  0.0000000 )
                  (  1.0000000  0.0000000  0.0000000 )
                  (  0.0000000  0.0000000 -1.0000000 )


      isym = 16     inv.  90 deg rotation - cart. axis [0,0,1]   

 cryst.   s(16) = (     0         -1          0      )
                  (     1         -1         -1      )
                  (    -1          0          0      )

 cart.    s(16) = (  0.0000000  1.0000000  0.0000000 )
                  ( -1.0000000  0.0000000  0.0000000 )
                  (  0.0000000  0.0000000 -1.0000000 )


     point group D_4h(4/mmm)
     there are 10 classes
     the character table:

       E     2C4   C2    2C2'  2C2'' i     2S4   s_h   2s_v  2s_d 
A_1g   1.00  1.00  1.00  1.00  1.00  1.00  1.00  1.00  1.00  1.00
A_2g   1.00  1.00  1.00 -1.00 -1.00  1.00  1.00  1.00 -1.00 -1.00
B_1g   1.00 -1.00  1.00  1.00 -1.00  1.00 -1.00  1.00  1.00 -1.00
B_2g   1.00 -1.00  1.00 -1.00  1.00  1.00 -1.00  1.00 -1.00  1.00
E_g    2.00  0.00 -2.00  0.00  0.00  2.00  0.00 -2.00  0.00  0.00
A_1u   1.00  1.00  1.00  1.00  1.00 -1.00 -1.00 -1.00 -1.00 -1.00
A_2u   1.00  1.00  1.00 -1.00 -1.00 -1.00 -1.00 -1.00  1.00  1.00
B_1u   1.00 -1.00  1.00  1.00 -1.00 -1.00  1.00 -1.00 -1.00  1.00
B_2u   1.00 -1.00  1.00 -1.00  1.00 -1.00  1.00 -1.00  1.00 -1.00
E_u    2.00  0.00 -2.00  0.00  0.00 -2.00  0.00  2.00  0.00  0.00

     the symmetry operations in each class and the name of the first element:

     E        1
          identity                                               
     2C4      7    8
           90 deg rotation - cart. axis [0,0,-1]                 
     C2       2
          180 deg rotation - cart. axis [0,0,1]                  
     2C2'     3    4
          180 deg rotation - cart. axis [0,1,0]                  
     2C2''    5    6
          180 deg rotation - cart. axis [1,1,0]                  
     i        9
          inversion                                              
     2S4     15   16
          inv.  90 deg rotation - cart. axis [0,0,-1]            
     s_h     10
          inv. 180 deg rotation - cart. axis [0,0,1]             
     2s_v    11   12
          inv. 180 deg rotation - cart. axis [0,1,0]             
     2s_d    13   14
          inv. 180 deg rotation - cart. axis [1,1,0]             

   Cartesian axes

     site n.     atom                  positions (alat units)
         1           Ca  tau(   1) = (   0.0000000   0.0000000   1.1250000  )
         2           O   tau(   2) = (   0.0000000   0.0000000   2.0055600  )
         3           O   tau(   3) = (   0.0000000   0.0000000   0.2444400  )

   Crystallographic axes

     site n.     atom                  positions (cryst. coord.)
         1           Ca  tau(   1) = (  0.0000000  0.5000000  0.5000000  )
         2           O   tau(   2) = (  0.0000000  0.8913600  0.8913600  )
         3           O   tau(   3) = (  0.0000000  0.1086400  0.1086400  )

     number of k points=    54  gaussian smearing, width (Ry)=  0.0100
                       cart. coord. in units 2pi/alat
        k(    1) = (   0.0000000   0.0000000   0.0000000), wk =   0.0138889
        k(    2) = (  -0.2500000   0.0000000   0.1111111), wk =   0.0277778
        k(    3) = (   0.5000000   0.0000000  -0.2222222), wk =   0.0555556
        k(    4) = (   0.0000000   0.1666667   0.0740741), wk =   0.0555556
        k(    5) = (  -0.2500000   0.1666667   0.1851852), wk =   0.0277778
        k(    6) = (   0.5000000   0.1666667  -0.1481481), wk =   0.1111111
        k(    7) = (   0.2500000   0.1666667  -0.0370370), wk =   0.0277778
        k(    8) = (   0.0000000   0.3333333   0.1481481), wk =   0.0555556
        k(    9) = (  -0.2500000   0.3333333   0.2592593), wk =   0.0277778
        k(   10) = (   0.5000000   0.3333333  -0.0740741), wk =   0.1111111
        k(   11) = (   0.2500000   0.3333333   0.0370370), wk =   0.0277778
        k(   12) = (  -0.2500000  -0.5000000  -0.1111111), wk =   0.0555556
        k(   13) = (   0.5000000  -0.5000000  -0.4444444), wk =   0.0277778
        k(   14) = (   0.1666667  -0.1666667   0.0000000), wk =   0.0277778
        k(   15) = (  -0.0833333  -0.1666667   0.1111111), wk =   0.0277778
        k(   16) = (   0.6666667  -0.1666667  -0.2222222), wk =   0.1111111
        k(   17) = (   0.4166667  -0.1666667  -0.1111111), wk =   0.0277778
        k(   18) = (  -0.0833333   0.0000000   0.1851852), wk =   0.0277778
        k(   19) = (   0.6666667   0.0000000  -0.1481481), wk =   0.0555556
        k(   20) = (   0.4166667   0.0000000  -0.0370370), wk =   0.0277778
        k(   21) = (   0.1666667   0.1666667   0.1481481), wk =   0.0277778
        k(   22) = (  -0.0833333   0.1666667   0.2592593), wk =   0.0277778
        k(   23) = (   0.6666667   0.1666667  -0.0740741), wk =   0.0555556
        k(   24) = (   0.4166667   0.1666667   0.0370370), wk =   0.0277778
        k(   25) = (  -0.0833333  -0.6666667  -0.1111111), wk =   0.0277778
        k(   26) = (   0.6666667  -0.6666667  -0.4444444), wk =   0.0277778
        k(   27) = (   0.4166667  -0.6666667  -0.3333333), wk =   0.0277778
        k(   28) = (  -0.0833333  -0.5000000  -0.0370370), wk =   0.0555556
        k(   29) = (   0.4166667  -0.5000000  -0.2592593), wk =   0.0555556
        k(   30) = (   0.1666667  -0.3333333  -0.0740741), wk =   0.0555556
        k(   31) = (  -0.0833333  -0.3333333   0.0370370), wk =   0.0277778
        k(   32) = (   0.6666667  -0.3333333  -0.2962963), wk =   0.0277778
        k(   33) = (   0.4166667  -0.3333333  -0.1851852), wk =   0.0277778
        k(   34) = (   0.3333333  -0.3333333   0.0000000), wk =   0.0277778
        k(   35) = (   0.0833333  -0.3333333   0.1111111), wk =   0.0277778
        k(   36) = (   0.5833333  -0.3333333  -0.1111111), wk =   0.0277778
        k(   37) = (   0.0833333  -0.1666667   0.1851852), wk =   0.0277778
        k(   38) = (   0.8333333  -0.1666667  -0.1481481), wk =   0.0277778
        k(   39) = (   0.5833333  -0.1666667  -0.0370370), wk =   0.0277778
        k(   40) = (   0.0833333   0.0000000   0.2592593), wk =   0.0277778
        k(   41) = (   0.8333333   0.0000000  -0.0740741), wk =   0.0555556
        k(   42) = (   0.5833333   0.0000000   0.0370370), wk =   0.0277778
        k(   43) = (   0.0833333  -0.8333333  -0.1111111), wk =   0.0277778
        k(   44) = (   0.8333333  -0.8333333  -0.4444444), wk =   0.0277778
        k(   45) = (   0.5833333  -0.8333333  -0.3333333), wk =   0.0277778
        k(   46) = (   0.3333333  -0.6666667  -0.1481481), wk =   0.0277778
        k(   47) = (   0.0833333  -0.6666667  -0.0370370), wk =   0.0277778
        k(   48) = (   0.5833333  -0.6666667  -0.2592593), wk =   0.0277778
        k(   49) = (  -0.7500000   0.6666667   0.1851852), wk =   0.0277778
        k(   50) = (  -0.2500000   0.6666667  -0.0370370), wk =   0.0277778
        k(   51) = (  -0.7500000   0.8333333   0.2592593), wk =   0.0277778
        k(   52) = (  -0.2500000   0.8333333   0.0370370), wk =   0.0277778
        k(   53) = (  -0.7500000   0.0000000  -0.1111111), wk =   0.0277778
        k(   54) = (   0.0000000   0.0000000  -0.4444444), wk =   0.0138889

                       cryst. coord.
        k(    1) = (   0.0000000   0.0000000   0.0000000), wk =   0.0138889
        k(    2) = (   0.0000000   0.0000000   0.2500000), wk =   0.0277778
        k(    3) = (   0.0000000   0.0000000  -0.5000000), wk =   0.0555556
        k(    4) = (   0.0000000   0.1666667   0.0000000), wk =   0.0555556
        k(    5) = (   0.0000000   0.1666667   0.2500000), wk =   0.0277778
        k(    6) = (   0.0000000   0.1666667  -0.5000000), wk =   0.1111111
        k(    7) = (   0.0000000   0.1666667  -0.2500000), wk =   0.0277778
        k(    8) = (   0.0000000   0.3333333   0.0000000), wk =   0.0555556
        k(    9) = (   0.0000000   0.3333333   0.2500000), wk =   0.0277778
        k(   10) = (   0.0000000   0.3333333  -0.5000000), wk =   0.1111111
        k(   11) = (   0.0000000   0.3333333  -0.2500000), wk =   0.0277778
        k(   12) = (   0.0000000  -0.5000000   0.2500000), wk =   0.0555556
        k(   13) = (   0.0000000  -0.5000000  -0.5000000), wk =   0.0277778
        k(   14) = (   0.1666667   0.0000000   0.0000000), wk =   0.0277778
        k(   15) = (   0.1666667   0.0000000   0.2500000), wk =   0.0277778
        k(   16) = (   0.1666667   0.0000000  -0.5000000), wk =   0.1111111
        k(   17) = (   0.1666667  -0.0000000  -0.2500000), wk =   0.0277778
        k(   18) = (   0.1666667   0.1666667   0.2500000), wk =   0.0277778
        k(   19) = (   0.1666667   0.1666667  -0.5000000), wk =   0.0555556
        k(   20) = (   0.1666667   0.1666667  -0.2500000), wk =   0.0277778
        k(   21) = (   0.1666667   0.3333333   0.0000000), wk =   0.0277778
        k(   22) = (   0.1666667   0.3333333   0.2500000), wk =   0.0277778
        k(   23) = (   0.1666667   0.3333333  -0.5000000), wk =   0.0555556
        k(   24) = (   0.1666667   0.3333333  -0.2500000), wk =   0.0277778
        k(   25) = (   0.1666667  -0.5000000   0.2500000), wk =   0.0277778
        k(   26) = (   0.1666667  -0.5000000  -0.5000000), wk =   0.0277778
        k(   27) = (   0.1666667  -0.5000000  -0.2500000), wk =   0.0277778
        k(   28) = (   0.1666667  -0.3333333   0.2500000), wk =   0.0555556
        k(   29) = (   0.1666667  -0.3333333  -0.2500000), wk =   0.0555556
        k(   30) = (   0.1666667  -0.1666667  -0.0000000), wk =   0.0555556
        k(   31) = (   0.1666667  -0.1666667   0.2500000), wk =   0.0277778
        k(   32) = (   0.1666667  -0.1666667  -0.5000000), wk =   0.0277778
        k(   33) = (   0.1666667  -0.1666667  -0.2500000), wk =   0.0277778
        k(   34) = (   0.3333333   0.0000000   0.0000000), wk =   0.0277778
        k(   35) = (   0.3333333   0.0000000   0.2500000), wk =   0.0277778
        k(   36) = (   0.3333333  -0.0000000  -0.2500000), wk =   0.0277778
        k(   37) = (   0.3333333   0.1666667   0.2500000), wk =   0.0277778
        k(   38) = (   0.3333333   0.1666667  -0.5000000), wk =   0.0277778
        k(   39) = (   0.3333333   0.1666667  -0.2500000), wk =   0.0277778
        k(   40) = (   0.3333333   0.3333333   0.2500000), wk =   0.0277778
        k(   41) = (   0.3333333   0.3333333  -0.5000000), wk =   0.0555556
        k(   42) = (   0.3333333   0.3333333  -0.2500000), wk =   0.0277778
        k(   43) = (   0.3333333  -0.5000000   0.2500000), wk =   0.0277778
        k(   44) = (   0.3333333  -0.5000000  -0.5000000), wk =   0.0277778
        k(   45) = (   0.3333333  -0.5000000  -0.2500000), wk =   0.0277778
        k(   46) = (   0.3333333  -0.3333333   0.0000000), wk =   0.0277778
        k(   47) = (   0.3333333  -0.3333333   0.2500000), wk =   0.0277778
        k(   48) = (   0.3333333  -0.3333333  -0.2500000), wk =   0.0277778
        k(   49) = (  -0.5000000   0.1666667   0.2500000), wk =   0.0277778
        k(   50) = (  -0.5000000   0.1666667  -0.2500000), wk =   0.0277778
        k(   51) = (  -0.5000000   0.3333333   0.2500000), wk =   0.0277778
        k(   52) = (  -0.5000000   0.3333333  -0.2500000), wk =   0.0277778
        k(   53) = (  -0.5000000  -0.5000000   0.2500000), wk =   0.0277778
        k(   54) = (  -0.5000000  -0.5000000  -0.5000000), wk =   0.0138889

     Dense  grid:    23447 G-vectors     FFT dimensions: (  45,  45,  45)

     Smooth grid:     6965 G-vectors     FFT dimensions: (  32,  32,  32)

     Dynamical RAM for                 wfc:       0.20 MB

     Dynamical RAM for     wfc (w. buffer):      10.95 MB

     Dynamical RAM for           str. fact:       0.72 MB

     Dynamical RAM for           local pot:       0.00 MB

     Dynamical RAM for          nlocal pot:       0.45 MB

     Dynamical RAM for                qrad:       5.49 MB

     Dynamical RAM for          rho,v,vnew:       3.16 MB

     Dynamical RAM for               rhoin:       1.05 MB

     Dynamical RAM for            rho*nmix:       5.72 MB

     Dynamical RAM for           G-vectors:       1.39 MB

     Dynamical RAM for          h,s,v(r/c):       0.16 MB

     Dynamical RAM for          <psi|beta>:       0.01 MB

     Dynamical RAM for                 psi:       0.80 MB

     Dynamical RAM for                hpsi:       0.80 MB

     Dynamical RAM for                spsi:       0.80 MB

     Dynamical RAM for      wfcinit/wfcrot:       0.49 MB

     Dynamical RAM for           addusdens:      67.26 MB

     Dynamical RAM for          addusforce:      69.24 MB

     Dynamical RAM for         addusstress:      71.91 MB

     Estimated static dynamical RAM per process >      33.49 MB

     Estimated max dynamical RAM per process >     105.40 MB

     Check: negative/imaginary core charge=   -0.000003    0.000000

     Initial potential from superposition of free atoms
     Check: negative starting charge=   -0.000224

     starting charge   21.99454, renormalised to   22.00000

     negative rho (up, down):  2.243E-04 0.000E+00
     Starting wfcs are   18 randomized atomic wfcs

     total cpu time spent up to now is        3.4 secs

     Self-consistent Calculation

     iteration #  1     ecut=    35.00 Ry     beta= 0.40
     Davidson diagonalization with overlap
     ethr =  1.00E-02,  avg # of iterations =  2.0

     negative rho (up, down):  2.323E-04 0.000E+00

     total cpu time spent up to now is        6.3 secs

     total energy              =    -138.95322279 Ry
     Harris-Foulkes estimate   =    -139.06648083 Ry
     estimated scf accuracy    <       0.28037229 Ry

     iteration #  2     ecut=    35.00 Ry     beta= 0.40
     Davidson diagonalization with overlap
     ethr =  1.27E-03,  avg # of iterations =  2.2

     negative rho (up, down):  2.196E-04 0.000E+00

     total cpu time spent up to now is        9.4 secs

     total energy              =    -139.00430167 Ry
     Harris-Foulkes estimate   =    -139.00874769 Ry
     estimated scf accuracy    <       0.02777602 Ry

     iteration #  3     ecut=    35.00 Ry     beta= 0.40
     Davidson diagonalization with overlap
     ethr =  1.26E-04,  avg # of iterations =  2.0

     negative rho (up, down):  2.111E-04 0.000E+00

     total cpu time spent up to now is       12.3 secs

     total energy              =    -139.00536020 Ry
     Harris-Foulkes estimate   =    -139.00617244 Ry
     estimated scf accuracy    <       0.00796476 Ry

     iteration #  4     ecut=    35.00 Ry     beta= 0.40
     Davidson diagonalization with overlap
     ethr =  3.62E-05,  avg # of iterations =  2.8

     negative rho (up, down):  2.119E-04 0.000E+00

     total cpu time spent up to now is       15.3 secs

     total energy              =    -139.00603904 Ry
     Harris-Foulkes estimate   =    -139.00598703 Ry
     estimated scf accuracy    <       0.00010349 Ry

     iteration #  5     ecut=    35.00 Ry     beta= 0.40
     Davidson diagonalization with overlap
     ethr =  4.70E-07,  avg # of iterations =  5.0

     negative rho (up, down):  2.123E-04 0.000E+00

     total cpu time spent up to now is       19.9 secs

     total energy              =    -139.00613648 Ry
     Harris-Foulkes estimate   =    -139.00612300 Ry
     estimated scf accuracy    <       0.00002197 Ry

     iteration #  6     ecut=    35.00 Ry     beta= 0.40
     Davidson diagonalization with overlap
     ethr =  9.99E-08,  avg # of iterations =  2.0

     negative rho (up, down):  2.120E-04 0.000E+00

     total cpu time spent up to now is       22.9 secs

     total energy              =    -139.00614205 Ry
     Harris-Foulkes estimate   =    -139.00613912 Ry
     estimated scf accuracy    <       0.00000106 Ry

     iteration #  7     ecut=    35.00 Ry     beta= 0.40
     Davidson diagonalization with overlap
     ethr =  4.80E-09,  avg # of iterations =  2.5

     negative rho (up, down):  2.118E-04 0.000E+00

     total cpu time spent up to now is       26.2 secs

     End of self-consistent calculation

          k = 0.0000 0.0000 0.0000 (   845 PWs)   bands (ev):

   -31.1244 -12.9500 -12.1581 -11.9680 -11.9680  -6.9100   1.3068   4.5895
     4.5895   6.5513   6.5513  11.3745  11.5435  13.9247  14.3430

     occupation numbers 
     1.0000   1.0000   1.0000   1.0000   1.0000   1.0000   1.0000   1.0000
     1.0000   1.0000   1.0000   0.0000   0.0000   0.0000   0.0000

          k =-0.2500 0.0000 0.1111 (   874 PWs)   bands (ev):

   -31.0840 -13.7968 -12.1195 -11.9180 -11.0971  -7.1211   1.7768   3.5029
     4.0292   6.4673   6.9169  10.9584  12.7485  14.3517  15.0403

     occupation numbers 
     1.0000   1.0000   1.0000   1.0000   1.0000   1.0000   1.0000   1.0000
     1.0000   1.0000   1.0000   0.0000   0.0000   0.0000   0.0000

          k = 0.5000 0.0000-0.2222 (   876 PWs)   bands (ev):

   -31.0431 -14.2956 -12.0776 -11.8669 -10.5554  -7.3364   2.3725   2.4911
     3.5381   6.5217   7.3165  10.3727  13.5873  14.4171  14.9460

     occupation numbers 
     1.0000   1.0000   1.0000   1.0000   1.0000   1.0000   1.0000   1.0000
     1.0000   1.0000   1.0000   0.0000   0.0000   0.0000   0.0000

          k = 0.0000 0.1667 0.0741 (   874 PWs)   bands (ev):

   -31.1043 -13.4647 -12.1386 -11.9432 -11.4442  -7.0153   1.5385   4.0148
     4.2983   6.4952   6.7315  11.2371  12.0363  14.3602  14.9172

     occupation numbers 
     1.0000   1.0000   1.0000   1.0000   1.0000   1.0000   1.0000   1.0000
     1.0000   1.0000   1.0000   0.0000   0.0000   0.0000   0.0000

          k =-0.2500 0.1667 0.1852 (   871 PWs)   bands (ev):

   -31.0652 -13.7607 -12.1329 -12.1141 -11.0143  -7.1983   2.1401   3.2543
     3.9941   6.3617   7.0301  10.5334  13.2766  14.3105  15.0650

     occupation numbers 
     1.0000   1.0000   1.0000   1.0000   1.0000   1.0000   1.0000   1.0000
     1.0000   1.0000   1.0000   0.0000   0.0000   0.0000   0.0000

          k = 0.5000 0.1667-0.1481 (   873 PWs)   bands (ev):

   -31.0277 -14.0895 -12.0609 -12.0263 -10.8619  -7.2764   2.2801   2.9024
     3.6093   6.2079   6.9036  10.5637  14.1410  14.7430  15.1543

     occupation numbers 
     1.0000   1.0000   1.0000   1.0000   1.0000   1.0000   1.0000   1.0000
     1.0000   1.0000   1.0000   0.0000   0.0000   0.0000   0.0000

          k = 0.2500 0.1667-0.0370 (   881 PWs)   bands (ev):

   -31.0673 -13.7776 -12.1162 -12.0757 -11.0385  -7.0855   1.6366   3.3561
     4.1913   5.9642   6.9890  11.3047  13.3459  14.1975  14.7290

     occupation numbers 
     1.0000   1.0000   1.0000   1.0000   1.0000   1.0000   1.0000   1.0000
     1.0000   1.0000   1.0000   0.0000   0.0000   0.0000   0.0000

          k = 0.0000 0.3333 0.1481 (   872 PWs)   bands (ev):

   -31.0636 -14.0643 -12.0992 -11.8926 -10.8104  -7.2280   2.0268   3.0276
     3.7768   6.4733   7.1108  10.6766  13.5212  14.0597  15.0917

     occupation numbers 
     1.0000   1.0000   1.0000   1.0000   1.0000   1.0000   1.0000   1.0000
     1.0000   1.0000   1.0000   0.0000   0.0000   0.0000   0.0000

          k =-0.2500 0.3333 0.2593 (   867 PWs)   bands (ev):

   -31.0293 -13.7762 -12.2538 -12.0874 -11.0774  -7.2464   2.4863   3.1104
     3.7109   6.3239   6.5970  10.4245  14.4079  14.5865  15.2273

     occupation numbers 
     1.0000   1.0000   1.0000   1.0000   1.0000   1.0000   1.0000   1.0000
     1.0000   1.0000   1.0000   0.0000   0.0000   0.0000   0.0000

          k = 0.5000 0.3333-0.0741 (   868 PWs)   bands (ev):

   -30.9968 -13.5047 -12.3310 -12.0275 -11.6409  -7.1554   2.3817   3.3578
     3.8109   5.4003   6.5096  10.8677  14.8273  15.3293  15.5215

     occupation numbers 
     1.0000   1.0000   1.0000   1.0000   1.0000   1.0000   1.0000   1.0000
     1.0000   1.0000   1.0000   0.0000   0.0000   0.0000   0.0000

          k = 0.2500 0.3333 0.0370 (   877 PWs)   bands (ev):

   -31.0314 -13.7989 -12.2404 -12.0371 -11.1022  -7.1322   1.8378   3.2188
     4.0717   5.5741   6.9361  11.1850  14.2620  14.6610  14.7382

     occupation numbers 
     1.0000   1.0000   1.0000   1.0000   1.0000   1.0000   1.0000   1.0000
     1.0000   1.0000   1.0000   0.0000   0.0000   0.0000   0.0000

          k =-0.2500-0.5000-0.1111 (   872 PWs)   bands (ev):

   -31.0123 -13.8394 -12.1809 -12.0440 -11.2103  -7.2161   2.3092   3.1857
     3.6775   5.8181   6.6630  10.7256  14.5866  15.0178  15.3515

     occupation numbers 
     1.0000   1.0000   1.0000   1.0000   1.0000   1.0000   1.0000   1.0000
     1.0000   1.0000   1.0000   0.0000   0.0000   0.0000   0.0000

          k = 0.5000-0.5000-0.4444 (   868 PWs)   bands (ev):

   -30.9812 -12.7678 -12.4923 -12.4618 -12.0057  -7.0943   2.4948   3.3817
     4.0699   4.9664   6.3917  10.9950  14.9369  15.3608  15.6971

     occupation numbers 
     1.0000   1.0000   1.0000   1.0000   1.0000   1.0000   1.0000   1.0000
     1.0000   1.0000   1.0000   0.0000   0.0000   0.0000   0.0000

          k = 0.1667-0.1667 0.0000 (   886 PWs)   bands (ev):

   -31.0862 -13.6176 -12.0989 -12.0940 -11.1865  -7.0285   1.5135   3.6138
     4.3447   6.1104   6.9035  11.4255  12.6868  14.1340  14.9330

     occupation numbers 
     1.0000   1.0000   1.0000   1.0000   1.0000   1.0000   1.0000   1.0000
     1.0000   1.0000   1.0000   0.0000   0.0000   0.0000   0.0000

          k =-0.0833-0.1667 0.1111 (   874 PWs)   bands (ev):

   -31.0987 -13.4985 -12.1451 -12.0107 -11.3431  -7.0603   1.6912   3.8370
     4.2962   6.4520   6.8682  11.0009  12.1776  14.4935  14.8602

     occupation numbers 
     1.0000   1.0000   1.0000   1.0000   1.0000   1.0000   1.0000   1.0000
     1.0000   1.0000   1.0000   0.0000   0.0000   0.0000   0.0000

          k = 0.6667-0.1667-0.2222 (   870 PWs)   bands (ev):

   -31.0461 -13.9226 -12.1109 -12.0837 -10.9157  -7.2567   2.3439   3.0033
     3.7744   6.3840   6.9520  10.4156  14.0027  14.2068  15.1922

     occupation numbers 
     1.0000   1.0000   1.0000   1.0000   1.0000   1.0000   1.0000   1.0000
     1.0000   1.0000   1.0000   0.0000   0.0000   0.0000   0.0000

          k = 0.4167-0.1667-0.1111 (   874 PWs)   bands (ev):

   -31.0334 -14.0515 -12.0558 -12.0416 -10.8830  -7.2300   2.0447   3.0294
     3.7254   6.0268   6.9845  10.7989  14.1240  14.5692  15.1294

     occupation numbers 
     1.0000   1.0000   1.0000   1.0000   1.0000   1.0000   1.0000   1.0000
     1.0000   1.0000   1.0000   0.0000   0.0000   0.0000   0.0000

          k =-0.0833 0.0000 0.1852 (   876 PWs)   bands (ev):

   -31.1158 -13.1026 -12.2186 -11.9666 -11.7717  -7.0996   1.9922   4.2805
     4.3725   6.8220   6.8794  10.5150  11.4155  14.4465  15.1020

     occupation numbers 
     1.0000   1.0000   1.0000   1.0000   1.0000   1.0000   1.0000   1.0000
     1.0000   1.0000   1.0000   0.0000   0.0000   0.0000   0.0000

          k = 0.6667 0.0000-0.1481 (   872 PWs)   bands (ev):

   -31.0612 -14.0415 -12.1682 -11.8963 -10.7877  -7.3213   2.4685   2.9569
     3.7043   6.6686   7.3184  10.3138  13.4729  13.9883  14.9094

     occupation numbers 
     1.0000   1.0000   1.0000   1.0000   1.0000   1.0000   1.0000   1.0000
     1.0000   1.0000   1.0000   0.0000   0.0000   0.0000   0.0000

          k = 0.4167 0.0000-0.0370 (   877 PWs)   bands (ev):

   -31.0495 -14.2396 -12.0671 -11.8725 -10.6383  -7.2445   1.8246   2.9681
     3.6291   6.2756   7.1753  11.1018  13.7815  14.0522  14.7499

     occupation numbers 
     1.0000   1.0000   1.0000   1.0000   1.0000   1.0000   1.0000   1.0000
     1.0000   1.0000   1.0000   0.0000   0.0000   0.0000   0.0000

          k = 0.1667 0.1667 0.1481 (   877 PWs)   bands (ev):

   -31.0844 -13.6042 -12.1396 -12.0987 -11.1665  -7.1267   1.9062   3.5442
     4.1977   6.3828   6.9996  10.7468  12.6160  14.4755  14.9017

     occupation numbers 
     1.0000   1.0000   1.0000   1.0000   1.0000   1.0000   1.0000   1.0000
     1.0000   1.0000   1.0000   0.0000   0.0000   0.0000   0.0000

          k =-0.0833 0.1667 0.2593 (   874 PWs)   bands (ev):

   -31.0948 -13.4580 -12.2471 -12.0179 -11.3148  -7.2269   2.4496   3.7034
     4.1109   6.8620   7.1136  10.2023  12.0296  14.6971  14.8453

     occupation numbers 
     1.0000   1.0000   1.0000   1.0000   1.0000   1.0000   1.0000   1.0000
     1.0000   1.0000   1.0000   0.0000   0.0000   0.0000   0.0000

          k = 0.6667 0.1667-0.0741 (   865 PWs)   bands (ev):

   -31.0443 -13.8966 -12.1630 -12.0970 -10.9083  -7.3055   2.5492   3.1472
     3.6591   6.4853   6.9891  10.5196  13.9480  14.2313  14.6890

     occupation numbers 
     1.0000   1.0000   1.0000   1.0000   1.0000   1.0000   1.0000   1.0000
     1.0000   1.0000   1.0000   0.0000   0.0000   0.0000   0.0000

          k = 0.4167 0.1667 0.0370 (   876 PWs)   bands (ev):

   -31.0337 -14.0521 -12.0500 -12.0425 -10.8897  -7.2050   1.9055   3.1093
     3.7687   5.8764   7.0247  11.0931  14.1003  14.4237  14.9657

     occupation numbers 
     1.0000   1.0000   1.0000   1.0000   1.0000   1.0000   1.0000   1.0000
     1.0000   1.0000   1.0000   0.0000   0.0000   0.0000   0.0000

          k =-0.0833-0.6667-0.1111 (   870 PWs)   bands (ev):

   -31.0564 -14.0002 -12.1761 -11.9540 -10.8141  -7.3239   2.4846   3.0523
     3.6913   6.6265   7.2434  10.3887  13.5859  14.0489  14.7521

     occupation numbers 
     1.0000   1.0000   1.0000   1.0000   1.0000   1.0000   1.0000   1.0000
     1.0000   1.0000   1.0000   0.0000   0.0000   0.0000   0.0000

          k = 0.6667-0.6667-0.4444 (   864 PWs)   bands (ev):

   -31.0121 -13.6102 -12.3675 -12.0899 -11.3040  -7.2264   2.6259   3.4399
     3.4968   5.8155   6.6161  10.7704  14.7333  14.8367  15.2030

     occupation numbers 
     1.0000   1.0000   1.0000   1.0000   1.0000   1.0000   1.0000   1.0000
     1.0000   1.0000   1.0000   0.0000   0.0000   0.0000   0.0000

          k = 0.4167-0.6667-0.3333 (   872 PWs)   bands (ev):

   -31.0017 -13.5476 -12.3528 -12.0214 -11.5322  -7.1497   2.2540   3.3124
     3.8847   5.4771   6.5354  10.8159  14.8107  15.2422  15.5070

     occupation numbers 
     1.0000   1.0000   1.0000   1.0000   1.0000   1.0000   1.0000   1.0000
     1.0000   1.0000   1.0000   0.0000   0.0000   0.0000   0.0000

          k =-0.0833-0.5000-0.0370 (   879 PWs)   bands (ev):

   -31.0390 -14.2391 -12.0819 -11.9101 -10.6424  -7.2928   1.9810   2.9848
     3.5635   6.2387   7.2227  10.9416  13.8778  14.1008  14.9701

     occupation numbers 
     1.0000   1.0000   1.0000   1.0000   1.0000   1.0000   1.0000   1.0000
     1.0000   1.0000   1.0000   0.0000   0.0000   0.0000   0.0000

          k = 0.4167-0.5000-0.2593 (   864 PWs)   bands (ev):

   -30.9854 -13.1153 -12.4384 -12.1560 -11.9483  -7.1339   2.5449   3.5141
     3.6748   5.6592   5.9984  10.6095  15.3534  15.4054  15.6546

     occupation numbers 
     1.0000   1.0000   1.0000   1.0000   1.0000   1.0000   1.0000   1.0000
     1.0000   1.0000   1.0000   0.0000   0.0000   0.0000   0.0000

          k = 0.1667-0.3333-0.0741 (   877 PWs)   bands (ev):

   -31.0479 -13.9378 -12.0873 -12.0578 -10.9379  -7.1595   1.8217   3.1657
     3.9512   5.9338   7.0198  11.0718  13.9638  14.3177  14.7409

     occupation numbers 
     1.0000   1.0000   1.0000   1.0000   1.0000   1.0000   1.0000   1.0000
     1.0000   1.0000   1.0000   0.0000   0.0000   0.0000   0.0000

          k =-0.0833-0.3333 0.0370 (   878 PWs)   bands (ev):

   -31.0603 -14.0361 -12.0689 -11.9468 -10.8535  -7.1566   1.7208   3.1790
     3.8672   6.1570   7.0302  11.2270  13.5991  14.2691  14.5336

     occupation numbers 
     1.0000   1.0000   1.0000   1.0000   1.0000   1.0000   1.0000   1.0000
     1.0000   1.0000   1.0000   0.0000   0.0000   0.0000   0.0000

          k = 0.6667-0.3333-0.2963 (   861 PWs)   bands (ev):

   -31.0139 -13.6486 -12.3475 -12.0333 -11.3074  -7.1698   2.2001   3.2487
     3.8788   5.7136   6.6213  10.6990  14.6480  15.2229  15.2765

     occupation numbers 
     1.0000   1.0000   1.0000   1.0000   1.0000   1.0000   1.0000   1.0000
     1.0000   1.0000   1.0000   0.0000   0.0000   0.0000   0.0000

          k = 0.4167-0.3333-0.1852 (   867 PWs)   bands (ev):

   -31.0014 -13.5449 -12.3577 -12.0284 -11.5216  -7.1744   2.4009   3.3170
     3.7328   5.7939   6.3094  10.5874  14.9249  15.4116  15.5325

     occupation numbers 
     1.0000   1.0000   1.0000   1.0000   1.0000   1.0000   1.0000   1.0000
     1.0000   1.0000   1.0000   0.0000   0.0000   0.0000   0.0000

          k = 0.3333-0.3333 0.0000 (   874 PWs)   bands (ev):

   -31.0145 -13.6536 -12.3408 -12.0215 -11.3220  -7.1213   1.9559   3.2674
     4.1082   5.3224   6.8100  11.1754  14.3942  14.8978  15.3008

     occupation numbers 
     1.0000   1.0000   1.0000   1.0000   1.0000   1.0000   1.0000   1.0000
     1.0000   1.0000   1.0000   0.0000   0.0000   0.0000   0.0000

          k = 0.0833-0.3333 0.1111 (   875 PWs)   bands (ev):

   -31.0597 -14.0330 -12.0819 -11.9477 -10.8439  -7.1949   1.8952   3.1012
     3.8311   6.2825   7.0652  10.8825  13.6402  14.1437  14.9177

     occupation numbers 
     1.0000   1.0000   1.0000   1.0000   1.0000   1.0000   1.0000   1.0000
     1.0000   1.0000   1.0000   0.0000   0.0000   0.0000   0.0000

          k = 0.5833-0.3333-0.1111 (   861 PWs)   bands (ev):

   -31.0008 -13.5286 -12.3679 -12.0455 -11.5246  -7.1891   2.5438   3.4052
     3.5930   5.7130   6.3928  10.6786  14.9213  15.2306  15.6108

     occupation numbers 
     1.0000   1.0000   1.0000   1.0000   1.0000   1.0000   1.0000   1.0000
     1.0000   1.0000   1.0000   0.0000   0.0000   0.0000   0.0000

          k = 0.0833-0.1667 0.1852 (   871 PWs)   bands (ev):

   -31.0969 -13.4829 -12.1892 -12.0139 -11.3273  -7.1463   2.0535   3.7647
     4.2025   6.6536   6.9917  10.5307  12.1081  14.6871  14.8574

     occupation numbers 
     1.0000   1.0000   1.0000   1.0000   1.0000   1.0000   1.0000   1.0000
     1.0000   1.0000   1.0000   0.0000   0.0000   0.0000   0.0000

          k = 0.8333-0.1667-0.1481 (   867 PWs)   bands (ev):

   -31.0808 -13.5604 -12.2412 -12.1081 -11.1422  -7.2680   2.6176   3.4681
     3.9818   6.8586   7.0800  10.1884  12.4807  14.5219  14.7832

     occupation numbers 
     1.0000   1.0000   1.0000   1.0000   1.0000   1.0000   1.0000   1.0000
     1.0000   1.0000   1.0000   0.0000   0.0000   0.0000   0.0000

          k = 0.5833-0.1667-0.0370 (   864 PWs)   bands (ev):

   -31.0316 -14.0291 -12.1094 -12.0499 -10.8717  -7.2901   2.3093   3.1262
     3.5893   6.1864   7.0106  10.7676  14.2163  14.3646  14.8585

     occupation numbers 
     1.0000   1.0000   1.0000   1.0000   1.0000   1.0000   1.0000   1.0000
     1.0000   1.0000   1.0000   0.0000   0.0000   0.0000   0.0000

          k = 0.0833 0.0000 0.2593 (   874 PWs)   bands (ev):

   -31.1134 -13.0690 -12.2821 -11.9703 -11.7668  -7.1921   2.4342   4.1956
     4.2897   7.0108   7.0699  10.1245  11.3231  14.4524  15.2653

     occupation numbers 
     1.0000   1.0000   1.0000   1.0000   1.0000   1.0000   1.0000   1.0000
     1.0000   1.0000   1.0000   0.0000   0.0000   0.0000   0.0000

          k = 0.8333 0.0000-0.0741 (   860 PWs)   bands (ev):

   -31.0971 -13.3768 -12.3425 -11.9543 -11.4016  -7.2958   2.8514   3.7809
     4.0559   7.0525   7.3191  10.0325  11.7652  14.4713  15.0158

     occupation numbers 
     1.0000   1.0000   1.0000   1.0000   1.0000   1.0000   1.0000   1.0000
     1.0000   1.0000   1.0000   0.0000   0.0000   0.0000   0.0000

          k = 0.5833 0.0000 0.0370 (   879 PWs)   bands (ev):

   -31.0471 -14.2178 -12.1367 -11.8762 -10.6136  -7.3385   2.1209   3.0464
     3.5588   6.4550   7.3879  10.7445  13.7735  13.9756  14.5859

     occupation numbers 
     1.0000   1.0000   1.0000   1.0000   1.0000   1.0000   1.0000   1.0000
     1.0000   1.0000   1.0000   0.0000   0.0000   0.0000   0.0000

          k = 0.0833-0.8333-0.1111 (   870 PWs)   bands (ev):

   -31.0930 -13.4293 -12.3051 -12.0215 -11.3086  -7.2817   2.7521   3.6904
     4.0422   7.0092   7.2068  10.0818  11.9635  14.5797  14.8385

     occupation numbers 
     1.0000   1.0000   1.0000   1.0000   1.0000   1.0000   1.0000   1.0000
     1.0000   1.0000   1.0000   0.0000   0.0000   0.0000   0.0000

          k = 0.8333-0.8333-0.4444 (   860 PWs)   bands (ev):

   -31.0790 -13.5278 -12.3048 -12.1128 -11.1373  -7.3136   2.8521   3.5487
     3.8965   7.0325   7.0786  10.2370  12.4157  14.4698  14.5489

     occupation numbers 
     1.0000   1.0000   1.0000   1.0000   1.0000   1.0000   1.0000   1.0000
     1.0000   1.0000   1.0000   0.0000   0.0000   0.0000   0.0000

          k = 0.5833-0.8333-0.3333 (   867 PWs)   bands (ev):

   -31.0319 -14.0348 -12.0979 -12.0483 -10.8698  -7.2921   2.3826   2.9924
     3.6028   6.2923   6.9364  10.5732  14.1617  14.5429  15.0428

     occupation numbers 
     1.0000   1.0000   1.0000   1.0000   1.0000   1.0000   1.0000   1.0000
     1.0000   1.0000   1.0000   0.0000   0.0000   0.0000   0.0000

          k = 0.3333-0.6667-0.1481 (   865 PWs)   bands (ev):

   -31.0127 -13.6272 -12.3609 -12.0669 -11.2988  -7.2220   2.5723   3.2860
     3.5985   6.1360   6.3339  10.5206  14.7032  15.2271  15.2393

     occupation numbers 
     1.0000   1.0000   1.0000   1.0000   1.0000   1.0000   1.0000   1.0000
     1.0000   1.0000   1.0000   0.0000   0.0000   0.0000   0.0000

          k = 0.0833-0.6667-0.0370 (   868 PWs)   bands (ev):

   -31.0558 -13.9911 -12.1980 -11.9553 -10.8128  -7.3336   2.4399   3.2018
     3.6712   6.5928   7.2943  10.5323  13.5588  14.0819  14.4331

     occupation numbers 
     1.0000   1.0000   1.0000   1.0000   1.0000   1.0000   1.0000   1.0000
     1.0000   1.0000   1.0000   0.0000   0.0000   0.0000   0.0000

          k = 0.5833-0.6667-0.2593 (   864 PWs)   bands (ev):

   -31.0010 -13.5380 -12.3632 -12.0370 -11.5190  -7.1888   2.5144   3.3511
     3.6207   5.9884   6.1466  10.5403  14.9503  15.3933  15.5924

     occupation numbers 
     1.0000   1.0000   1.0000   1.0000   1.0000   1.0000   1.0000   1.0000
     1.0000   1.0000   1.0000   0.0000   0.0000   0.0000   0.0000

          k =-0.7500 0.6667 0.1852 (   865 PWs)   bands (ev):

   -31.0302 -13.7885 -12.2482 -12.0626 -11.0838  -7.2097   2.2374   3.1412
     3.8306   6.0464   6.7626  10.5512  14.3924  14.6202  15.2550

     occupation numbers 
     1.0000   1.0000   1.0000   1.0000   1.0000   1.0000   1.0000   1.0000
     1.0000   1.0000   1.0000   0.0000   0.0000   0.0000   0.0000

          k =-0.2500 0.6667-0.0370 (   863 PWs)   bands (ev):

   -31.0281 -13.7525 -12.2607 -12.1308 -11.0777  -7.2704   2.6222   3.2680
     3.5866   6.1914   6.7528  10.6563  14.4742  14.5371  14.7208

     occupation numbers 
     1.0000   1.0000   1.0000   1.0000   1.0000   1.0000   1.0000   1.0000
     1.0000   1.0000   1.0000   0.0000   0.0000   0.0000   0.0000

          k =-0.7500 0.8333 0.2593 (   871 PWs)   bands (ev):

   -31.0637 -13.7427 -12.1700 -12.1249 -11.0029  -7.2587   2.4720   3.2083
     3.8860   6.6091   7.0115  10.3061  13.2207  14.3041  14.9976

     occupation numbers 
     1.0000   1.0000   1.0000   1.0000   1.0000   1.0000   1.0000   1.0000
     1.0000   1.0000   1.0000   0.0000   0.0000   0.0000   0.0000

          k =-0.2500 0.8333 0.0370 (   858 PWs)   bands (ev):

   -31.0616 -13.7092 -12.2386 -12.1333 -10.9955  -7.3131   2.7263   3.3425
     3.7667   6.7569   7.0370  10.4002  13.1441  14.3338  14.5420

     occupation numbers 
     1.0000   1.0000   1.0000   1.0000   1.0000   1.0000   1.0000   1.0000
     1.0000   1.0000   1.0000   0.0000   0.0000   0.0000   0.0000

          k =-0.7500 0.0000-0.1111 (   865 PWs)   bands (ev):

   -31.0792 -13.7465 -12.2564 -11.9255 -11.0584  -7.3079   2.6511   3.3612
     3.8766   6.8424   7.3196  10.2022  12.5800  14.4088  14.6894

     occupation numbers 
     1.0000   1.0000   1.0000   1.0000   1.0000   1.0000   1.0000   1.0000
     1.0000   1.0000   1.0000   0.0000   0.0000   0.0000   0.0000

          k = 0.0000 0.0000-0.4444 (   880 PWs)   bands (ev):

   -31.1149 -12.7630 -12.4305 -11.9831 -11.9831  -7.2848   3.0566   4.2428
     4.2428   7.3151   7.3151   9.7983  11.0008  14.2880  15.1867

     occupation numbers 
     1.0000   1.0000   1.0000   1.0000   1.0000   1.0000   1.0000   1.0000
     1.0000   1.0000   1.0000   0.0000   0.0000   0.0000   0.0000

     the Fermi energy is     8.5684 ev

!    total energy              =    -139.00614361 Ry
     Harris-Foulkes estimate   =    -139.00614229 Ry
     estimated scf accuracy    <       0.00000013 Ry

     The total energy is the sum of the following terms:

     one-electron contribution =     -40.32502135 Ry
     hartree contribution      =      31.40255262 Ry
     xc contribution           =     -25.96052059 Ry
     ewald contribution        =    -104.12315429 Ry
     smearing contrib. (-TS)   =      -0.00000000 Ry

     convergence has been achieved in   7 iterations

     negative rho (up, down):  2.118E-04 0.000E+00

     Forces acting on atoms (cartesian axes, Ry/au):

     atom    1 type  1   force =     0.00000000    0.00000000    0.00000000
     atom    2 type  2   force =     0.00000000   -0.00000000    0.02897094
     atom    3 type  2   force =     0.00000000   -0.00000000   -0.02897094
     The non-local contrib.  to forces
     atom    1 type  1   force =     0.00000000    0.00000000    0.00000000
     atom    2 type  2   force =     0.00000000    0.00000000    1.61777871
     atom    3 type  2   force =     0.00000000    0.00000000   -1.61777871
     The ionic contribution  to forces
     atom    1 type  1   force =     0.00000000    0.00000000   -0.00000000
     atom    2 type  2   force =    -0.00000000    0.00000000   -7.96894326
     atom    3 type  2   force =     0.00000000   -0.00000000    7.96894326
     The local contribution  to forces
     atom    1 type  1   force =     0.00000000   -0.00000000    0.00000000
     atom    2 type  2   force =     0.00000000   -0.00000000    6.38003622
     atom    3 type  2   force =     0.00000000   -0.00000000   -6.38003622
     The core correction contribution to forces
     atom    1 type  1   force =     0.00000000   -0.00000000   -0.00000000
     atom    2 type  2   force =     0.00000000    0.00000000    0.00000000
     atom    3 type  2   force =     0.00000000    0.00000000    0.00000000
     The Hubbard contrib.    to forces
     atom    1 type  1   force =     0.00000000    0.00000000    0.00000000
     atom    2 type  2   force =     0.00000000    0.00000000    0.00000000
     atom    3 type  2   force =     0.00000000    0.00000000    0.00000000
     The SCF correction term to forces
     atom    1 type  1   force =     0.00000000    0.00000000    0.00000000
     atom    2 type  2   force =    -0.00000000    0.00000000    0.00009927
     atom    3 type  2   force =     0.00000000   -0.00000000   -0.00009927

     Total force =     0.040971     Total SCF correction =     0.000140


     Computing stress (Cartesian axis) and pressure


     negative rho (up, down):  2.118E-04 0.000E+00
          total   stress  (Ry/bohr**3)                   (kbar)     P=   32.46
   0.00046343  -0.00000000  -0.00000000         68.17     -0.00     -0.00
  -0.00000000   0.00046343   0.00000000         -0.00     68.17      0.00
  -0.00000000   0.00000000  -0.00026483         -0.00      0.00    -38.96

     kinetic stress (kbar)  16388.96      0.00      0.00
                                0.00  16388.96     -0.00
                                0.00     -0.00  14568.19

     local   stress (kbar) -13628.92      0.00      0.00
                                0.00 -13628.92      0.00
                                0.00      0.00   1504.60

     nonloc. stress (kbar)  12247.69     -0.00     -0.00
                               -0.00  12247.69      0.00
                               -0.00      0.00  11413.75

     hartree stress (kbar)   8005.48     -0.00     -0.00
                               -0.00   8005.48     -0.00
                               -0.00     -0.00   2558.25

     exc-cor stress (kbar)  -3803.99      0.00      0.00
                                0.00  -3803.99     -0.00
                                0.00     -0.00  -3810.17

     corecor stress (kbar)   -994.75     -0.00      0.00
                               -0.00   -994.75     -0.00
                                0.00     -0.00   -995.22

     ewald   stress (kbar) -18146.29      0.00     -0.00
                                0.00 -18146.29     -0.00
                               -0.00     -0.00 -25278.36

     hubbard stress (kbar)      0.00      0.00      0.00
                                0.00      0.00      0.00
                                0.00      0.00      0.00

     london  stress (kbar)      0.00      0.00      0.00
                                0.00      0.00      0.00
                                0.00      0.00      0.00

     DFT-D3  stress (kbar)      0.00      0.00      0.00
                                0.00      0.00      0.00
                                0.00      0.00      0.00

     XDM     stress (kbar)      0.00      0.00      0.00
                                0.00      0.00      0.00
                                0.00      0.00      0.00

     dft-nl  stress (kbar)      0.00      0.00      0.00
                                0.00      0.00      0.00
                                0.00      0.00      0.00

     TS-vdW  stress (kbar)      0.00      0.00      0.00
                                0.00      0.00      0.00
                                0.00      0.00      0.00



     BFGS Geometry Optimization

     number of scf cycles    =   1
     number of bfgs steps    =   0

     enthalpy new            =    -138.7524773332 Ry

     new trust radius        =       0.1012993051 bohr
     new conv_thr            =       0.0000010000 Ry

     new unit-cell volume =    234.13176 a.u.^3 (    34.69475 Ang^3 )
     density =      3.44970 g/cm^3

CELL_PARAMETERS (alat=  6.04712363)
   0.493046918  -0.493046918   1.088873202
   0.493046918   0.493046918   1.088873202
  -0.493046918  -0.493046918   1.088873202

ATOMIC_POSITIONS (crystal)
Ca       0.000000000   0.500000000   0.500000000
O        0.000000000   0.893489272   0.893489272
O        0.000000000   0.106510728   0.106510728



     Writing output data file CaO2.save/
     Check: negative starting charge=   -0.000224
     NEW-OLD atomic charge density approx. for the potential

     Check: negative/imaginary core charge=   -0.000003    0.000000
     Check: negative starting charge=   -0.000219

     negative rho (up, down):  1.921E-04 0.000E+00
     extrapolated charge   20.62481, renormalised to   22.00000

     total cpu time spent up to now is       30.3 secs

     Self-consistent Calculation

     iteration #  1     ecut=    35.00 Ry     beta= 0.40
     Davidson diagonalization with overlap
     ethr =  1.00E-06,  avg # of iterations = 10.2

     negative rho (up, down):  1.712E-04 0.000E+00

     total cpu time spent up to now is       37.3 secs

     total energy              =    -138.79254997 Ry
     Harris-Foulkes estimate   =    -140.85132545 Ry
     estimated scf accuracy    <       0.18606323 Ry

     iteration #  2     ecut=    35.00 Ry     beta= 0.40
     Davidson diagonalization with overlap
     ethr =  8.46E-04,  avg # of iterations =  3.5

     negative rho (up, down):  1.716E-04 0.000E+00

     total cpu time spent up to now is       41.6 secs

     total energy              =    -139.00123264 Ry
     Harris-Foulkes estimate   =    -139.06117086 Ry
     estimated scf accuracy    <       0.20966518 Ry

     iteration #  3     ecut=    35.00 Ry     beta= 0.40
     Davidson diagonalization with overlap
     ethr =  8.46E-04,  avg # of iterations =  1.3

     negative rho (up, down):  1.850E-04 0.000E+00

     total cpu time spent up to now is       44.4 secs

     total energy              =    -138.99383754 Ry
     Harris-Foulkes estimate   =    -139.01117070 Ry
     estimated scf accuracy    <       0.05715992 Ry

     iteration #  4     ecut=    35.00 Ry     beta= 0.40
     Davidson diagonalization with overlap
     ethr =  2.60E-04,  avg # of iterations =  2.8

     negative rho (up, down):  1.947E-04 0.000E+00

     total cpu time spent up to now is       47.5 secs

     total energy              =    -139.00205232 Ry
     Harris-Foulkes estimate   =    -139.00221764 Ry
     estimated scf accuracy    <       0.00560394 Ry

     iteration #  5     ecut=    35.00 Ry     beta= 0.40
     Davidson diagonalization with overlap
     ethr =  2.55E-05,  avg # of iterations =  1.9

     negative rho (up, down):  2.054E-04 0.000E+00

     total cpu time spent up to now is       50.3 secs

     total energy              =    -138.99946142 Ry
     Harris-Foulkes estimate   =    -139.00221997 Ry
     estimated scf accuracy    <       0.00564170 Ry

     iteration #  6     ecut=    35.00 Ry     beta= 0.40
     Davidson diagonalization with overlap
     ethr =  2.55E-05,  avg # of iterations =  2.1

     negative rho (up, down):  2.046E-04 0.000E+00

     total cpu time spent up to now is       53.4 secs

     total energy              =    -139.00044140 Ry
     Harris-Foulkes estimate   =    -139.00045316 Ry
     estimated scf accuracy    <       0.00004996 Ry

     iteration #  7     ecut=    35.00 Ry     beta= 0.40
     Davidson diagonalization with overlap
     ethr =  2.27E-07,  avg # of iterations =  4.5

     negative rho (up, down):  2.016E-04 0.000E+00

     total cpu time spent up to now is       57.7 secs

     total energy              =    -139.00048430 Ry
     Harris-Foulkes estimate   =    -139.00049037 Ry
     estimated scf accuracy    <       0.00001069 Ry

     iteration #  8     ecut=    35.00 Ry     beta= 0.40
     Davidson diagonalization with overlap
     ethr =  4.86E-08,  avg # of iterations =  3.0

     negative rho (up, down):  2.025E-04 0.000E+00

     total cpu time spent up to now is       61.3 secs

     total energy              =    -139.00048508 Ry
     Harris-Foulkes estimate   =    -139.00048834 Ry
     estimated scf accuracy    <       0.00000518 Ry

     iteration #  9     ecut=    35.00 Ry     beta= 0.40
     Davidson diagonalization with overlap
     ethr =  2.36E-08,  avg # of iterations =  2.7

     negative rho (up, down):  2.021E-04 0.000E+00

     total cpu time spent up to now is       64.5 secs

     End of self-consistent calculation

          k = 0.0000 0.0000 0.0000 (   845 PWs)   bands (ev):

   -30.2350 -13.0874 -11.2411 -11.0789 -11.0789  -5.8263   1.6256   4.9681
     4.9681   7.3997   7.3997  12.0867  13.4153  15.1725  15.2164

     occupation numbers 
     1.0000   1.0000   1.0000   1.0000   1.0000   1.0000   1.0000   1.0000
     1.0000   1.0000   1.0000   0.0000   0.0000   0.0000   0.0000

          k =-0.2535 0.0000 0.1148 (   874 PWs)   bands (ev):

   -30.1838 -13.7488 -11.2064 -11.0170 -10.4098  -6.0773   2.1381   3.8748
     4.3458   7.3461   7.8057  12.6064  13.5560  15.4114  16.1252

     occupation numbers 
     1.0000   1.0000   1.0000   1.0000   1.0000   1.0000   1.0000   1.0000
     1.0000   1.0000   1.0000   0.0000   0.0000   0.0000   0.0000

          k = 0.5071 0.0000-0.2296 (   876 PWs)   bands (ev):

   -30.1318 -14.2278 -11.1671 -10.9535  -9.9036  -6.3299   2.8126   2.8129
     3.8013   7.4466   8.2571  11.8891  14.5481  15.4261  15.8781

     occupation numbers 
     1.0000   1.0000   1.0000   1.0000   1.0000   1.0000   1.0000   1.0000
     1.0000   1.0000   1.0000   0.0000   0.0000   0.0000   0.0000

          k = 0.0000 0.1690 0.0765 (   874 PWs)   bands (ev):

   -30.2095 -13.4556 -11.2238 -11.0482 -10.7097  -5.9519   1.8787   4.3912
     4.6445   7.3567   7.5988  12.7767  12.9877  15.4450  16.0423

     occupation numbers 
     1.0000   1.0000   1.0000   1.0000   1.0000   1.0000   1.0000   1.0000
     1.0000   1.0000   1.0000   0.0000   0.0000   0.0000   0.0000

          k =-0.2535 0.1690 0.1913 (   871 PWs)   bands (ev):

   -30.1601 -13.7173 -11.2658 -11.2170 -10.3122  -6.1661   2.5510   3.5833
     4.3814   7.2060   7.9690  12.0960  14.0939  15.3083  16.1106

     occupation numbers 
     1.0000   1.0000   1.0000   1.0000   1.0000   1.0000   1.0000   1.0000
     1.0000   1.0000   1.0000   0.0000   0.0000   0.0000   0.0000

          k = 0.5071 0.1690-0.1531 (   873 PWs)   bands (ev):

   -30.1132 -14.0188 -11.1488 -11.1431 -10.2403  -6.2578   2.6998   3.2815
     3.9197   7.0820   7.8155  12.1557  15.1497  15.7940  16.1225

     occupation numbers 
     1.0000   1.0000   1.0000   1.0000   1.0000   1.0000   1.0000   1.0000
     1.0000   1.0000   1.0000   0.0000   0.0000   0.0000   0.0000

          k = 0.2535 0.1690-0.0383 (   881 PWs)   bands (ev):

   -30.1634 -13.7372 -11.2539 -11.1539 -10.3287  -6.0341   1.9714   3.6863
     4.5789   6.7637   7.9275  13.1123  14.1850  15.2333  15.7274

     occupation numbers 
     1.0000   1.0000   1.0000   1.0000   1.0000   1.0000   1.0000   1.0000
     1.0000   1.0000   1.0000   0.0000   0.0000   0.0000   0.0000

          k = 0.0000 0.3380 0.1531 (   872 PWs)   bands (ev):

   -30.1579 -14.0015 -11.1876 -10.9855 -10.1459  -6.2031   2.4080   3.3945
     4.0657   7.3731   8.0238  12.2563  14.4134  15.0269  16.3079

     occupation numbers 
     1.0000   1.0000   1.0000   1.0000   1.0000   1.0000   1.0000   1.0000
     1.0000   1.0000   1.0000   0.0000   0.0000   0.0000   0.0000

          k =-0.2535 0.3380 0.2679 (   867 PWs)   bands (ev):

   -30.1155 -13.7231 -11.4180 -11.1817 -10.4198  -6.2203   2.9455   3.4469
     4.1129   7.1851   7.4898  11.9995  15.3982  15.4832  16.3519

     occupation numbers 
     1.0000   1.0000   1.0000   1.0000   1.0000   1.0000   1.0000   1.0000
     1.0000   1.0000   1.0000   0.0000   0.0000   0.0000   0.0000

          k = 0.5071 0.3380-0.0765 (   868 PWs)   bands (ev):

   -30.0758 -13.4524 -11.5030 -11.1256 -11.0366  -6.1129   2.8276   3.7743
     4.2187   6.1608   7.4156  12.6176  15.9347  16.3735  16.5087

     occupation numbers 
     1.0000   1.0000   1.0000   1.0000   1.0000   1.0000   1.0000   1.0000
     1.0000   1.0000   1.0000   0.0000   0.0000   0.0000   0.0000

          k = 0.2535 0.3380 0.0383 (   877 PWs)   bands (ev):

   -30.1188 -13.7485 -11.3982 -11.1142 -10.4400  -6.0879   2.2038   3.5688
     4.4777   6.3405   7.8895  12.9956  15.3001  15.6037  15.7116

     occupation numbers 
     1.0000   1.0000   1.0000   1.0000   1.0000   1.0000   1.0000   1.0000
     1.0000   1.0000   1.0000   0.0000   0.0000   0.0000   0.0000

          k =-0.2535-0.5071-0.1148 (   872 PWs)   bands (ev):

   -30.0946 -13.7702 -11.3261 -11.1304 -10.6126  -6.1855   2.7434   3.5852
     4.0348   6.6315   7.5712  12.3952  15.6541  16.1084  16.3498

     occupation numbers 
     1.0000   1.0000   1.0000   1.0000   1.0000   1.0000   1.0000   1.0000
     1.0000   1.0000   1.0000   0.0000   0.0000   0.0000   0.0000

          k = 0.5071-0.5071-0.4592 (   868 PWs)   bands (ev):

   -30.0570 -12.9541 -11.6957 -11.6519 -11.0855  -6.0397   2.9490   3.8261
     4.5158   5.6836   7.2949  12.8250  15.9950  16.2871  16.7511

     occupation numbers 
     1.0000   1.0000   1.0000   1.0000   1.0000   1.0000   1.0000   1.0000
     1.0000   1.0000   1.0000   0.0000   0.0000   0.0000   0.0000

          k = 0.1690-0.1690 0.0000 (   886 PWs)   bands (ev):

   -30.1871 -13.5953 -11.2256 -11.1775 -10.4502  -5.9667   1.8378   3.9437
     4.7359   6.9177   7.8217  13.2741  13.4775  15.1688  15.9013

     occupation numbers 
     1.0000   1.0000   1.0000   1.0000   1.0000   1.0000   1.0000   1.0000
     1.0000   1.0000   1.0000   0.0000   0.0000   0.0000   0.0000

          k =-0.0845-0.1690 0.1148 (   874 PWs)   bands (ev):

   -30.2024 -13.4852 -11.2350 -11.1311 -10.6029  -6.0051   2.0534   4.1860
     4.6706   7.2978   7.7669  12.6599  12.9361  15.6038  15.8833

     occupation numbers 
     1.0000   1.0000   1.0000   1.0000   1.0000   1.0000   1.0000   1.0000
     1.0000   1.0000   1.0000   0.0000   0.0000   0.0000   0.0000

          k = 0.6761-0.1690-0.2296 (   870 PWs)   bands (ev):

   -30.1362 -13.8633 -11.2355 -11.1910 -10.2487  -6.2340   2.7779   3.3441
     4.1317   7.2530   7.8768  11.9626  14.8999  15.1652  16.3209

     occupation numbers 
     1.0000   1.0000   1.0000   1.0000   1.0000   1.0000   1.0000   1.0000
     1.0000   1.0000   1.0000   0.0000   0.0000   0.0000   0.0000

          k = 0.4225-0.1690-0.1148 (   874 PWs)   bands (ev):

   -30.1206 -13.9845 -11.1683 -11.1352 -10.2451  -6.2040   2.4294   3.4033
     4.0552   6.8647   7.9192  12.4495  15.1378  15.5680  16.1835

     occupation numbers 
     1.0000   1.0000   1.0000   1.0000   1.0000   1.0000   1.0000   1.0000
     1.0000   1.0000   1.0000   0.0000   0.0000   0.0000   0.0000

          k =-0.0845 0.0000 0.1913 (   876 PWs)   bands (ev):

   -30.2232 -13.1616 -11.3364 -11.0782 -10.9665  -6.0447   2.4127   4.6593
     4.7438   7.7084   7.7669  12.0876  12.1237  15.4222  16.1406

     occupation numbers 
     1.0000   1.0000   1.0000   1.0000   1.0000   1.0000   1.0000   1.0000
     1.0000   1.0000   1.0000   0.0000   0.0000   0.0000   0.0000

          k = 0.6761 0.0000-0.1531 (   872 PWs)   bands (ev):

   -30.1542 -13.9755 -11.2815 -10.9910 -10.1337  -6.2976   2.9244   3.2975
     3.9945   7.6060   8.2621  11.8824  14.3194  14.9650  16.0949

     occupation numbers 
     1.0000   1.0000   1.0000   1.0000   1.0000   1.0000   1.0000   1.0000
     1.0000   1.0000   1.0000   0.0000   0.0000   0.0000   0.0000

          k = 0.4225 0.0000-0.0383 (   877 PWs)   bands (ev):

   -30.1402 -14.1732 -11.1521 -10.9602  -9.9803  -6.2171   2.1631   3.3400
     3.8989   7.1815   8.0940  12.8845  14.7703  15.0335  15.7049

     occupation numbers 
     1.0000   1.0000   1.0000   1.0000   1.0000   1.0000   1.0000   1.0000
     1.0000   1.0000   1.0000   0.0000   0.0000   0.0000   0.0000

          k = 0.1690 0.1690 0.1531 (   877 PWs)   bands (ev):

   -30.1843 -13.5788 -11.2328 -11.2325 -10.4374  -6.0828   2.2935   3.8733
     4.5914   7.2189   7.9279  12.3492  13.3918  15.5475  15.8620

     occupation numbers 
     1.0000   1.0000   1.0000   1.0000   1.0000   1.0000   1.0000   1.0000
     1.0000   1.0000   1.0000   0.0000   0.0000   0.0000   0.0000

          k =-0.0845 0.1690 0.2679 (   874 PWs)   bands (ev):

   -30.1964 -13.4381 -11.3742 -11.1420 -10.5911  -6.1840   2.9176   4.0447
     4.4833   7.7664   8.0469  11.7627  12.7551  15.7630  15.8548

     occupation numbers 
     1.0000   1.0000   1.0000   1.0000   1.0000   1.0000   1.0000   1.0000
     1.0000   1.0000   1.0000   0.0000   0.0000   0.0000   0.0000

          k = 0.6761 0.1690-0.0765 (   865 PWs)   bands (ev):

   -30.1334 -13.8347 -11.2810 -11.2372 -10.2473  -6.2721   2.9916   3.4955
     4.0125   7.4053   7.9137  12.2156  14.8146  15.1959  15.7659

     occupation numbers 
     1.0000   1.0000   1.0000   1.0000   1.0000   1.0000   1.0000   1.0000
     1.0000   1.0000   1.0000   0.0000   0.0000   0.0000   0.0000

          k = 0.4225 0.1690 0.0383 (   876 PWs)   bands (ev):

   -30.1210 -13.9853 -11.1654 -11.1318 -10.2513  -6.1711   2.2703   3.4785
     4.1020   6.7009   7.9698  12.8884  15.1194  15.4083  15.9193

     occupation numbers 
     1.0000   1.0000   1.0000   1.0000   1.0000   1.0000   1.0000   1.0000
     1.0000   1.0000   1.0000   0.0000   0.0000   0.0000   0.0000

          k =-0.0845-0.6761-0.1148 (   870 PWs)   bands (ev):

   -30.1482 -13.9347 -11.2940 -11.0637 -10.1572  -6.2957   2.9275   3.4032
     4.0013   7.5650   8.1838  12.0127  14.4338  15.0195  15.8822

     occupation numbers 
     1.0000   1.0000   1.0000   1.0000   1.0000   1.0000   1.0000   1.0000
     1.0000   1.0000   1.0000   0.0000   0.0000   0.0000   0.0000

          k = 0.6761-0.6761-0.4592 (   864 PWs)   bands (ev):

   -30.0942 -13.5625 -11.5504 -11.1917 -10.6651  -6.1850   3.0813   3.7966
     3.9212   6.6385   7.5316  12.5631  15.7794  15.8351  16.1246

     occupation numbers 
     1.0000   1.0000   1.0000   1.0000   1.0000   1.0000   1.0000   1.0000
     1.0000   1.0000   1.0000   0.0000   0.0000   0.0000   0.0000

          k = 0.4225-0.6761-0.3444 (   872 PWs)   bands (ev):

   -30.0820 -13.4994 -11.5287 -11.1071 -10.9157  -6.1104   2.6893   3.7060
     4.3122   6.2341   7.4418  12.5042  15.9250  16.3233  16.4804

     occupation numbers 
     1.0000   1.0000   1.0000   1.0000   1.0000   1.0000   1.0000   1.0000
     1.0000   1.0000   1.0000   0.0000   0.0000   0.0000   0.0000

          k =-0.0845-0.5071-0.0383 (   879 PWs)   bands (ev):

   -30.1268 -14.1699 -11.1760 -11.0051  -9.9994  -6.2682   2.3442   3.3630
     3.8395   7.1445   8.1612  12.7176  14.8450  15.1298  15.9116

     occupation numbers 
     1.0000   1.0000   1.0000   1.0000   1.0000   1.0000   1.0000   1.0000
     1.0000   1.0000   1.0000   0.0000   0.0000   0.0000   0.0000

          k = 0.4225-0.5071-0.2679 (   864 PWs)   bands (ev):

   -30.0620 -13.1327 -11.6287 -11.4789 -11.0609  -6.0950   3.0204   3.9539
     4.1149   6.4402   6.8285  12.2373  16.3424  16.5378  16.7113

     occupation numbers 
     1.0000   1.0000   1.0000   1.0000   1.0000   1.0000   1.0000   1.0000
     1.0000   1.0000   1.0000   0.0000   0.0000   0.0000   0.0000

          k = 0.1690-0.3380-0.0765 (   877 PWs)   bands (ev):

   -30.1390 -13.8809 -11.2209 -11.1381 -10.2648  -6.1215   2.1776   3.5133
     4.3157   6.7442   7.9648  12.7999  14.9178  15.2647  15.8182

     occupation numbers 
     1.0000   1.0000   1.0000   1.0000   1.0000   1.0000   1.0000   1.0000
     1.0000   1.0000   1.0000   0.0000   0.0000   0.0000   0.0000

          k =-0.0845-0.3380 0.0383 (   878 PWs)   bands (ev):

   -30.1542 -13.9756 -11.1488 -11.0526 -10.1808  -6.1169   2.0559   3.5371
     4.1827   7.0112   7.9508  13.0215  14.5180  15.2213  15.5543

     occupation numbers 
     1.0000   1.0000   1.0000   1.0000   1.0000   1.0000   1.0000   1.0000
     1.0000   1.0000   1.0000   0.0000   0.0000   0.0000   0.0000

          k = 0.6761-0.3380-0.3061 (   861 PWs)   bands (ev):

   -30.0970 -13.6025 -11.5216 -11.1140 -10.6671  -6.1362   2.6259   3.6163
     4.3095   6.4900   7.5328  12.3237  15.6844  16.2219  16.3881

     occupation numbers 
     1.0000   1.0000   1.0000   1.0000   1.0000   1.0000   1.0000   1.0000
     1.0000   1.0000   1.0000   0.0000   0.0000   0.0000   0.0000

          k = 0.4225-0.3380-0.1913 (   867 PWs)   bands (ev):

   -30.0815 -13.4966 -11.5362 -11.1190 -10.8997  -6.1425   2.8590   3.7105
     4.1573   6.5874   7.1780  12.1913  15.9851  16.4824  16.6390

     occupation numbers 
     1.0000   1.0000   1.0000   1.0000   1.0000   1.0000   1.0000   1.0000
     1.0000   1.0000   1.0000   0.0000   0.0000   0.0000   0.0000

          k = 0.3380-0.3380 0.0000 (   874 PWs)   bands (ev):

   -30.0980 -13.6081 -11.5120 -11.0982 -10.6832  -6.0741   2.3456   3.6349
     4.5335   6.0655   7.7567  13.0178  15.4353  15.8851  16.2543

     occupation numbers 
     1.0000   1.0000   1.0000   1.0000   1.0000   1.0000   1.0000   1.0000
     1.0000   1.0000   1.0000   0.0000   0.0000   0.0000   0.0000

          k = 0.0845-0.3380 0.1148 (   875 PWs)   bands (ev):

   -30.1533 -13.9719 -11.1659 -11.0539 -10.1734  -6.1641   2.2574   3.4617
     4.1445   7.1481   7.9888  12.5252  14.5524  15.1020  16.0667

     occupation numbers 
     1.0000   1.0000   1.0000   1.0000   1.0000   1.0000   1.0000   1.0000
     1.0000   1.0000   1.0000   0.0000   0.0000   0.0000   0.0000

          k = 0.5916-0.3380-0.1148 (   861 PWs)   bands (ev):

   -30.0806 -13.4799 -11.5520 -11.1374 -10.9070  -6.1520   3.0079   3.8196
     3.9896   6.5116   7.2758  12.3629  15.9963  16.3309  16.6053

     occupation numbers 
     1.0000   1.0000   1.0000   1.0000   1.0000   1.0000   1.0000   1.0000
     1.0000   1.0000   1.0000   0.0000   0.0000   0.0000   0.0000

          k = 0.0845-0.1690 0.1913 (   871 PWs)   bands (ev):

   -30.1996 -13.4662 -11.2953 -11.1360 -10.5950  -6.1017   2.4702   4.1125
     4.5762   7.5252   7.9064  12.1000  12.8495  15.7631  15.8730

     occupation numbers 
     1.0000   1.0000   1.0000   1.0000   1.0000   1.0000   1.0000   1.0000
     1.0000   1.0000   1.0000   0.0000   0.0000   0.0000   0.0000

          k = 0.8451-0.1690-0.1531 (   867 PWs)   bands (ev):

   -30.1788 -13.5301 -11.3711 -11.2461 -10.4267  -6.2275   3.1003   3.7789
     4.3741   7.7629   8.0309  11.7728  13.2286  15.5259  15.8205

     occupation numbers 
     1.0000   1.0000   1.0000   1.0000   1.0000   1.0000   1.0000   1.0000
     1.0000   1.0000   1.0000   0.0000   0.0000   0.0000   0.0000

          k = 0.5916-0.1690-0.0383 (   864 PWs)   bands (ev):

   -30.1178 -13.9593 -11.2140 -11.1766 -10.2397  -6.2592   2.7229   3.5038
     3.9096   7.0754   7.9421  12.5332  15.2149  15.3701  15.7866

     occupation numbers 
     1.0000   1.0000   1.0000   1.0000   1.0000   1.0000   1.0000   1.0000
     1.0000   1.0000   1.0000   0.0000   0.0000   0.0000   0.0000

          k = 0.0845 0.0000 0.2679 (   874 PWs)   bands (ev):

   -30.2195 -13.1244 -11.4259 -11.0835 -10.9694  -6.1393   2.9076   4.5725
     4.6610   7.9255   7.9846  11.6962  12.0051  15.4414  16.1617

     occupation numbers 
     1.0000   1.0000   1.0000   1.0000   1.0000   1.0000   1.0000   1.0000
     1.0000   1.0000   1.0000   0.0000   0.0000   0.0000   0.0000

          k = 0.8451 0.0000-0.0765 (   860 PWs)   bands (ev):

   -30.1984 -13.3567 -11.4997 -11.0644 -10.6981  -6.2412   3.3600   4.1374
     4.4042   8.0087   8.2701  11.6923  12.4635  15.5078  16.0491

     occupation numbers 
     1.0000   1.0000   1.0000   1.0000   1.0000   1.0000   1.0000   1.0000
     1.0000   1.0000   1.0000   0.0000   0.0000   0.0000   0.0000

          k = 0.5916 0.0000 0.0383 (   879 PWs)   bands (ev):

   -30.1364 -14.1485 -11.2470 -10.9657  -9.9658  -6.3129   2.4998   3.4244
     3.8299   7.4013   8.3384  12.4995  14.7267  14.9615  15.5251

     occupation numbers 
     1.0000   1.0000   1.0000   1.0000   1.0000   1.0000   1.0000   1.0000
     1.0000   1.0000   1.0000   0.0000   0.0000   0.0000   0.0000

          k = 0.0845-0.8451-0.1148 (   870 PWs)   bands (ev):

   -30.1936 -13.4076 -11.4520 -11.1472 -10.5914  -6.2325   3.2516   4.0241
     4.4134   7.9468   8.1552  11.7021  12.6762  15.6360  15.8452

     occupation numbers 
     1.0000   1.0000   1.0000   1.0000   1.0000   1.0000   1.0000   1.0000
     1.0000   1.0000   1.0000   0.0000   0.0000   0.0000   0.0000

          k = 0.8451-0.8451-0.4592 (   860 PWs)   bands (ev):

   -30.1760 -13.4963 -11.4561 -11.2529 -10.4274  -6.2621   3.3402   3.8657
     4.2876   7.9998   8.0200  11.9579  13.1505  15.4895  15.5252

     occupation numbers 
     1.0000   1.0000   1.0000   1.0000   1.0000   1.0000   1.0000   1.0000
     1.0000   1.0000   1.0000   0.0000   0.0000   0.0000   0.0000

          k = 0.5916-0.8451-0.3444 (   867 PWs)   bands (ev):

   -30.1182 -13.9656 -11.1992 -11.1724 -10.2369  -6.2678   2.8123   3.3614
     3.9250   7.1863   7.8514  12.2177  15.1609  15.5275  16.1116

     occupation numbers 
     1.0000   1.0000   1.0000   1.0000   1.0000   1.0000   1.0000   1.0000
     1.0000   1.0000   1.0000   0.0000   0.0000   0.0000   0.0000

          k = 0.3380-0.6761-0.1531 (   865 PWs)   bands (ev):

   -30.0951 -13.5799 -11.5409 -11.1594 -10.6594  -6.1908   3.0430   3.6382
     4.0251   6.9832   7.1993  12.1439  15.7157  16.1565  16.3782

     occupation numbers 
     1.0000   1.0000   1.0000   1.0000   1.0000   1.0000   1.0000   1.0000
     1.0000   1.0000   1.0000   0.0000   0.0000   0.0000   0.0000

          k = 0.0845-0.6761-0.0383 (   868 PWs)   bands (ev):

   -30.1472 -13.9246 -11.3244 -11.0657 -10.1582  -6.2987   2.8640   3.5672
     3.9819   7.5427   8.2428  12.2662  14.4007  15.0464  15.4605

     occupation numbers 
     1.0000   1.0000   1.0000   1.0000   1.0000   1.0000   1.0000   1.0000
     1.0000   1.0000   1.0000   0.0000   0.0000   0.0000   0.0000

          k = 0.5916-0.6761-0.2679 (   864 PWs)   bands (ev):

   -30.0810 -13.4895 -11.5447 -11.1291 -10.8975  -6.1575   2.9854   3.7470
     4.0366   6.8184   6.9852  12.1445  16.0007  16.4792  16.6595

     occupation numbers 
     1.0000   1.0000   1.0000   1.0000   1.0000   1.0000   1.0000   1.0000
     1.0000   1.0000   1.0000   0.0000   0.0000   0.0000   0.0000

          k =-0.7606 0.6761 0.1913 (   865 PWs)   bands (ev):

   -30.1169 -13.7365 -11.4097 -11.1479 -10.4241  -6.1824   2.6603   3.4914
     4.2363   6.8623   7.6816  12.1264  15.3917  15.5267  16.3762

     occupation numbers 
     1.0000   1.0000   1.0000   1.0000   1.0000   1.0000   1.0000   1.0000
     1.0000   1.0000   1.0000   0.0000   0.0000   0.0000   0.0000

          k =-0.2535 0.6761-0.0383 (   863 PWs)   bands (ev):

   -30.1136 -13.6978 -11.4287 -11.2422 -10.4226  -6.2324   3.0727   3.6148
     3.9826   7.0646   7.6722  12.4155  15.4061  15.4884  15.7524

     occupation numbers 
     1.0000   1.0000   1.0000   1.0000   1.0000   1.0000   1.0000   1.0000
     1.0000   1.0000   1.0000   0.0000   0.0000   0.0000   0.0000

          k =-0.7606 0.8451 0.2679 (   871 PWs)   bands (ev):

   -30.1578 -13.6973 -11.2859 -11.2627 -10.3063  -6.2278   2.9312   3.5233
     4.2710   7.4922   7.9494  11.8641  14.0237  15.2858  16.0768

     occupation numbers 
     1.0000   1.0000   1.0000   1.0000   1.0000   1.0000   1.0000   1.0000
     1.0000   1.0000   1.0000   0.0000   0.0000   0.0000   0.0000

          k =-0.2535 0.8451 0.0383 (   858 PWs)   bands (ev):

   -30.1545 -13.6613 -11.3749 -11.2797 -10.3056  -6.2697   3.1878   3.6700
     4.1494   7.7018   7.9743  12.1247  13.9289  15.2989  15.5830

     occupation numbers 
     1.0000   1.0000   1.0000   1.0000   1.0000   1.0000   1.0000   1.0000
     1.0000   1.0000   1.0000   0.0000   0.0000   0.0000   0.0000

          k =-0.7606 0.0000-0.1148 (   865 PWs)   bands (ev):

   -30.1764 -13.6915 -11.3921 -11.0279 -10.3923  -6.2682   3.1382   3.7045
     4.1951   7.7911   8.2668  11.8192  13.3378  15.4389  15.7740

     occupation numbers 
     1.0000   1.0000   1.0000   1.0000   1.0000   1.0000   1.0000   1.0000
     1.0000   1.0000   1.0000   0.0000   0.0000   0.0000   0.0000

          k = 0.0000 0.0000-0.4592 (   880 PWs)   bands (ev):

   -30.2203 -12.9195 -11.6074 -11.1007 -11.1007  -6.2161   3.5786   4.6223
     4.6223   8.2698   8.2698  11.4982  11.6498  15.2545  16.0740

     occupation numbers 
     1.0000   1.0000   1.0000   1.0000   1.0000   1.0000   1.0000   1.0000
     1.0000   1.0000   1.0000   0.0000   0.0000   0.0000   0.0000

     the Fermi energy is     9.5966 ev

!    total energy              =    -139.00048635 Ry
     Harris-Foulkes estimate   =    -139.00048680 Ry
     estimated scf accuracy    <       0.00000065 Ry

     The total energy is the sum of the following terms:

     one-electron contribution =     -37.73857796 Ry
     hartree contribution      =      30.73448265 Ry
     xc contribution           =     -26.08187156 Ry
     ewald contribution        =    -105.91451949 Ry
     smearing contrib. (-TS)   =      -0.00000000 Ry

     convergence has been achieved in   9 iterations

     negative rho (up, down):  2.021E-04 0.000E+00

     Forces acting on atoms (cartesian axes, Ry/au):

     atom    1 type  1   force =     0.00000000    0.00000000    0.00000000
     atom    2 type  2   force =     0.00000000   -0.00000000   -0.03671891
     atom    3 type  2   force =     0.00000000   -0.00000000    0.03671891
     The non-local contrib.  to forces
     atom    1 type  1   force =     0.00000000    0.00000000    0.00000000
     atom    2 type  2   force =     0.00000000    0.00000000    1.80204925
     atom    3 type  2   force =     0.00000000    0.00000000   -1.80204925
     The ionic contribution  to forces
     atom    1 type  1   force =    -0.00000000    0.00000000   -0.00000000
     atom    2 type  2   force =     0.00000000   -0.00000000   -8.69263953
     atom    3 type  2   force =    -0.00000000    0.00000000    8.69263953
     The local contribution  to forces
     atom    1 type  1   force =     0.00000000   -0.00000000   -0.00000000
     atom    2 type  2   force =     0.00000000   -0.00000000    6.85468971
     atom    3 type  2   force =     0.00000000    0.00000000   -6.85468971
     The core correction contribution to forces
     atom    1 type  1   force =     0.00000000   -0.00000000    0.00000000
     atom    2 type  2   force =     0.00000000    0.00000000    0.00000000
     atom    3 type  2   force =     0.00000000    0.00000000    0.00000000
     The Hubbard contrib.    to forces
     atom    1 type  1   force =     0.00000000    0.00000000    0.00000000
     atom    2 type  2   force =     0.00000000    0.00000000    0.00000000
     atom    3 type  2   force =     0.00000000    0.00000000    0.00000000
     The SCF correction term to forces
     atom    1 type  1   force =    -0.00000000    0.00000000    0.00000000
     atom    2 type  2   force =     0.00000000   -0.00000000   -0.00081834
     atom    3 type  2   force =    -0.00000000    0.00000000    0.00081834

     Total force =     0.051928     Total SCF correction =     0.001157


     Computing stress (Cartesian axis) and pressure


     negative rho (up, down):  2.021E-04 0.000E+00
          total   stress  (Ry/bohr**3)                   (kbar)     P=  122.06
   0.00094547   0.00000000  -0.00000000        139.08      0.00     -0.00
   0.00000000   0.00094547   0.00000000          0.00    139.08      0.00
  -0.00000000   0.00000000   0.00059834         -0.00      0.00     88.02

     kinetic stress (kbar)  17525.64     -0.00     -0.00
                               -0.00  17525.64      0.00
                               -0.00      0.00  15654.81

     local   stress (kbar) -13641.11      0.00      0.00
                                0.00 -13641.11     -0.00
                                0.00     -0.00   1389.90

     nonloc. stress (kbar)  13017.58      0.00      0.00
                                0.00  13017.58      0.00
                                0.00     -0.00  12125.33

     hartree stress (kbar)   8264.13     -0.00     -0.00
                               -0.00   8264.13      0.00
                               -0.00      0.00   2782.23

     exc-cor stress (kbar)  -4065.67     -0.00     -0.00
                               -0.00  -4065.67     -0.00
                               -0.00     -0.00  -4068.98

     corecor stress (kbar)  -1057.19     -0.00      0.00
                               -0.00  -1057.19      0.00
                                0.00     -0.00  -1057.76

     ewald   stress (kbar) -19904.31     -0.00     -0.00
                               -0.00 -19904.31     -0.00
                               -0.00     -0.00 -26737.51

[...]

     occupation numbers 
     1.0000   1.0000   1.0000   1.0000   1.0000   1.0000   1.0000   1.0000
     1.0000   1.0000   1.0000   0.0000   0.0000   0.0000   0.0000

          k = 0.4184 0.1674 0.0421 (   760 PWs)   bands (ev):

   -29.0641 -12.8379 -10.1287 -10.1003  -9.2635  -5.1520   2.9830   4.5307
     5.2341   7.4397   9.1144  13.8757  16.4280  16.6201  17.4076

     occupation numbers 
     1.0000   1.0000   1.0000   1.0000   1.0000   1.0000   1.0000   1.0000
     1.0000   1.0000   1.0000   0.0000   0.0000   0.0000   0.0000

          k =-0.0837-0.6695-0.1263 (   764 PWs)   bands (ev):

   -29.0813 -12.7878 -10.3626 -10.0242  -9.1528  -5.3262   3.7636   4.5441
     4.9754   8.7058   9.2949  13.0288  15.3803  16.1142  17.1803

     occupation numbers 
     1.0000   1.0000   1.0000   1.0000   1.0000   1.0000   1.0000   1.0000
     1.0000   1.0000   1.0000   0.0000   0.0000   0.0000   0.0000

          k = 0.6695-0.6695-0.5054 (   754 PWs)   bands (ev):

   -29.0342 -12.4086 -10.4924 -10.2860  -9.6339  -5.1493   3.8140   4.7345
     5.0109   7.3610   9.0854  13.6705  17.0288  17.0373  17.4779

     occupation numbers 
     1.0000   1.0000   1.0000   1.0000   1.0000   1.0000   1.0000   1.0000
     1.0000   1.0000   1.0000   0.0000   0.0000   0.0000   0.0000

          k = 0.4184-0.6695-0.3790 (   749 PWs)   bands (ev):

   -29.0275 -12.3959 -10.4280 -10.1331  -9.8300  -5.1693   3.4960   4.6356
     5.3313   7.1140   8.8144  13.3450  17.0002  17.4139  17.7311

     occupation numbers 
     1.0000   1.0000   1.0000   1.0000   1.0000   1.0000   1.0000   1.0000
     1.0000   1.0000   1.0000   0.0000   0.0000   0.0000   0.0000

          k =-0.0837-0.5021-0.0421 (   759 PWs)   bands (ev):

   -29.0666 -13.0023 -10.2173  -9.9637  -9.0248  -5.2354   3.0833   4.4790
     4.9010   8.0738   9.1872  13.7680  16.0650  16.4670  17.0801

     occupation numbers 
     1.0000   1.0000   1.0000   1.0000   1.0000   1.0000   1.0000   1.0000
     1.0000   1.0000   1.0000   0.0000   0.0000   0.0000   0.0000

          k = 0.4184-0.5021-0.2948 (   753 PWs)   bands (ev):

   -29.0086 -12.0758 -10.5382 -10.4265  -9.9595  -5.2237   3.9560   4.8054
     5.0108   7.5682   8.1565  12.9130  17.2807  17.5762  17.6806

     occupation numbers 
     1.0000   1.0000   1.0000   1.0000   1.0000   1.0000   1.0000   1.0000
     1.0000   1.0000   1.0000   0.0000   0.0000   0.0000   0.0000

          k = 0.1674-0.3347-0.0842 (   757 PWs)   bands (ev):

   -29.0820 -12.7562 -10.1492 -10.0829  -9.2702  -5.1425   2.9317   4.5743
     5.4276   7.4974   9.0088  13.7193  16.0499  16.4749  17.4540

     occupation numbers 
     1.0000   1.0000   1.0000   1.0000   1.0000   1.0000   1.0000   1.0000
     1.0000   1.0000   1.0000   0.0000   0.0000   0.0000   0.0000

          k =-0.0837-0.3347 0.0421 (   757 PWs)   bands (ev):

   -29.0968 -12.8406 -10.0892  -9.9958  -9.1988  -5.1067   2.7611   4.6572
     5.3012   7.7749   8.8242  13.9580  15.6887  16.5691  17.4443

     occupation numbers 
     1.0000   1.0000   1.0000   1.0000   1.0000   1.0000   1.0000   1.0000
     1.0000   1.0000   1.0000   0.0000   0.0000   0.0000   0.0000

          k = 0.6695-0.3347-0.3369 (   752 PWs)   bands (ev):

   -29.0414 -12.5051 -10.4241 -10.0981  -9.6011  -5.2366   3.5017   4.5978
     5.2702   7.4726   8.7708  13.1006  16.7078  17.2193  17.3837

     occupation numbers 
     1.0000   1.0000   1.0000   1.0000   1.0000   1.0000   1.0000   1.0000
     1.0000   1.0000   1.0000   0.0000   0.0000   0.0000   0.0000

          k = 0.4184-0.3347-0.2106 (   757 PWs)   bands (ev):

   -29.0264 -12.4067 -10.4461 -10.1443  -9.7679  -5.2697   3.7845   4.6617
     5.0731   7.6904   8.4096  12.8970  16.9996  17.4616  17.6663

     occupation numbers 
     1.0000   1.0000   1.0000   1.0000   1.0000   1.0000   1.0000   1.0000
     1.0000   1.0000   1.0000   0.0000   0.0000   0.0000   0.0000

          k = 0.3347-0.3347-0.0000 (   742 PWs)   bands (ev):

   -29.0438 -12.4889 -10.4010 -10.0913  -9.6779  -5.0528   3.0367   4.5839
     5.7327   6.6850   9.1105  13.9978  16.8529  17.2452  17.2800

     occupation numbers 
     1.0000   1.0000   1.0000   1.0000   1.0000   1.0000   1.0000   1.0000
     1.0000   1.0000   1.0000   0.0000   0.0000   0.0000   0.0000

          k = 0.0837-0.3347 0.1263 (   754 PWs)   bands (ev):

   -29.0944 -12.8474 -10.1030  -9.9982  -9.1706  -5.2265   3.0802   4.5621
     5.2184   8.0158   8.8978  13.4044  15.6518  16.3517  17.3740

     occupation numbers 
     1.0000   1.0000   1.0000   1.0000   1.0000   1.0000   1.0000   1.0000
     1.0000   1.0000   1.0000   0.0000   0.0000   0.0000   0.0000

          k = 0.5858-0.3347-0.1263 (   755 PWs)   bands (ev):

   -29.0240 -12.3626 -10.4843 -10.1804  -9.8209  -5.2034   3.8459   4.7271
     5.0102   7.3699   8.7332  13.2293  17.1893  17.4976  17.6253

     occupation numbers 
     1.0000   1.0000   1.0000   1.0000   1.0000   1.0000   1.0000   1.0000
     1.0000   1.0000   1.0000   0.0000   0.0000   0.0000   0.0000

          k = 0.0837-0.1674 0.2106 (   759 PWs)   bands (ev):

   -29.1340 -12.4098 -10.2002 -10.0754  -9.5414  -5.2378   3.4738   5.1397
     5.5548   8.5059   8.8568  12.9146  13.9399  16.7419  17.0719

     occupation numbers 
     1.0000   1.0000   1.0000   1.0000   1.0000   1.0000   1.0000   1.0000
     1.0000   1.0000   1.0000   0.0000   0.0000   0.0000   0.0000

          k = 0.8368-0.1674-0.1685 (   765 PWs)   bands (ev):

   -29.1081 -12.4315 -10.4001 -10.1947  -9.4005  -5.3033   4.1102   4.8316
     5.2544   9.0221   9.0924  12.7231  14.2009  16.5650  17.0082

     occupation numbers 
     1.0000   1.0000   1.0000   1.0000   1.0000   1.0000   1.0000   1.0000
     1.0000   1.0000   1.0000   0.0000   0.0000   0.0000   0.0000

          k = 0.5858-0.1674-0.0421 (   756 PWs)   bands (ev):

   -29.0558 -12.7940 -10.2972 -10.1301  -9.2439  -5.2246   3.4566   4.6222
     4.9097   7.9544   9.2359  13.6373  16.4046  16.4801  17.2334

     occupation numbers 
     1.0000   1.0000   1.0000   1.0000   1.0000   1.0000   1.0000   1.0000
     1.0000   1.0000   1.0000   0.0000   0.0000   0.0000   0.0000

          k = 0.0837-0.0000 0.2948 (   754 PWs)   bands (ev):

   -29.1459 -12.1008 -10.3659 -10.0392  -9.9104  -5.2542   4.0083   5.5023
     5.5847   9.0491   9.0997  12.6051  13.0355  16.4380  17.1615

     occupation numbers 
     1.0000   1.0000   1.0000   1.0000   1.0000   1.0000   1.0000   1.0000
     1.0000   1.0000   1.0000   0.0000   0.0000   0.0000   0.0000

          k = 0.8368-0.0000-0.0842 (   763 PWs)   bands (ev):

   -29.1209 -12.2286 -10.6361 -10.0306  -9.6748  -5.2289   4.2732   5.1318
     5.3168   9.2757   9.5123  12.9568  13.3991  16.8273  17.0407

     occupation numbers 
     1.0000   1.0000   1.0000   1.0000   1.0000   1.0000   1.0000   1.0000
     1.0000   1.0000   1.0000   0.0000   0.0000   0.0000   0.0000

          k = 0.5858-0.0000 0.0421 (   766 PWs)   bands (ev):

   -29.0721 -12.9746 -10.3360  -9.9320  -8.9917  -5.2706   3.2645   4.5393
     4.8571   8.5012   9.3501  13.6425  15.8885  16.0212  17.0051

     occupation numbers 
     1.0000   1.0000   1.0000   1.0000   1.0000   1.0000   1.0000   1.0000
     1.0000   1.0000   1.0000   0.0000   0.0000   0.0000   0.0000

          k = 0.0837-0.8368-0.1263 (   766 PWs)   bands (ev):

   -29.1186 -12.2993 -10.5355 -10.1057  -9.5656  -5.2624   4.2214   5.0456
     5.3057   9.1853   9.3436  12.8120  13.6297  16.8173  16.9344

     occupation numbers 
     1.0000   1.0000   1.0000   1.0000   1.0000   1.0000   1.0000   1.0000
     1.0000   1.0000   1.0000   0.0000   0.0000   0.0000   0.0000

          k = 0.8368-0.8368-0.5054 (   772 PWs)   bands (ev):

   -29.1009 -12.3371 -10.6287 -10.2115  -9.4253  -5.2097   4.1458   4.9827
     5.1370   9.0908   9.4302  13.3082  14.0627  16.5885  16.8959

     occupation numbers 
     1.0000   1.0000   1.0000   1.0000   1.0000   1.0000   1.0000   1.0000
     1.0000   1.0000   1.0000   0.0000   0.0000   0.0000   0.0000

          k = 0.5858-0.8368-0.3790 (   761 PWs)   bands (ev):

   -29.0569 -12.8180 -10.2416 -10.1228  -9.2233  -5.3067   3.6302   4.4863
     4.9043   8.1593   9.0628  13.1564  16.3082  16.5240  17.1862

     occupation numbers 
     1.0000   1.0000   1.0000   1.0000   1.0000   1.0000   1.0000   1.0000
     1.0000   1.0000   1.0000   0.0000   0.0000   0.0000   0.0000

          k = 0.3347-0.6695-0.1685 (   759 PWs)   bands (ev):

   -29.0366 -12.4676 -10.4698 -10.1809  -9.5928  -5.2789   3.9682   4.7050
     4.8630   7.9256   8.5786  12.9486  16.8349  17.0976  17.6448

     occupation numbers 
     1.0000   1.0000   1.0000   1.0000   1.0000   1.0000   1.0000   1.0000
     1.0000   1.0000   1.0000   0.0000   0.0000   0.0000   0.0000

          k = 0.0837-0.6695-0.0421 (   764 PWs)   bands (ev):

   -29.0789 -12.7560 -10.4497 -10.0297  -9.1697  -5.2550   3.6260   4.6981
     4.9476   8.6646   9.4170  13.4830  15.3268  16.1618  17.1934

     occupation numbers 
     1.0000   1.0000   1.0000   1.0000   1.0000   1.0000   1.0000   1.0000
     1.0000   1.0000   1.0000   0.0000   0.0000   0.0000   0.0000

          k = 0.5858-0.6695-0.2948 (   757 PWs)   bands (ev):

   -29.0251 -12.3949 -10.4669 -10.1561  -9.7697  -5.2812   3.9337   4.7173
     4.9190   7.8870   8.2703  12.8559  17.0762  17.4785  17.6341

     occupation numbers 
     1.0000   1.0000   1.0000   1.0000   1.0000   1.0000   1.0000   1.0000
     1.0000   1.0000   1.0000   0.0000   0.0000   0.0000   0.0000

          k =-0.7532 0.6695 0.2106 (   752 PWs)   bands (ev):

   -29.0587 -12.6347 -10.3305 -10.1090  -9.3766  -5.3101   3.6105   4.5139
     5.1803   7.9227   8.7919  12.8781  16.4465  16.5308  17.4264

     occupation numbers 
     1.0000   1.0000   1.0000   1.0000   1.0000   1.0000   1.0000   1.0000
     1.0000   1.0000   1.0000   0.0000   0.0000   0.0000   0.0000

          k =-0.2511 0.6695-0.0421 (   763 PWs)   bands (ev):

   -29.0504 -12.5393 -10.3769 -10.3452  -9.4102  -5.2002   3.8231   4.7641
     4.8755   7.8811   9.1526  13.5386  16.3324  16.6835  17.3990

     occupation numbers 
     1.0000   1.0000   1.0000   1.0000   1.0000   1.0000   1.0000   1.0000
     1.0000   1.0000   1.0000   0.0000   0.0000   0.0000   0.0000

          k =-0.7532 0.8368 0.2948 (   759 PWs)   bands (ev):

   -29.0921 -12.5961 -10.2753 -10.2029  -9.2769  -5.3417   3.9551   4.5743
     5.1804   8.6862   8.9752  12.6940  15.0129  16.3581  17.2319

     occupation numbers 
     1.0000   1.0000   1.0000   1.0000   1.0000   1.0000   1.0000   1.0000
     1.0000   1.0000   1.0000   0.0000   0.0000   0.0000   0.0000

          k =-0.2511 0.8368 0.0421 (   770 PWs)   bands (ev):

   -29.0838 -12.5014 -10.5182 -10.2352  -9.3068  -5.2288   3.9726   4.8256
     5.0146   8.7449   9.3381  13.3683  14.8422  16.4201  17.1036

     occupation numbers 
     1.0000   1.0000   1.0000   1.0000   1.0000   1.0000   1.0000   1.0000
     1.0000   1.0000   1.0000   0.0000   0.0000   0.0000   0.0000

          k =-0.7532 0.0000-0.1263 (   764 PWs)   bands (ev):

   -29.1044 -12.5607 -10.4767  -9.9930  -9.3741  -5.2967   4.0218   4.7907
     5.1536   8.9947   9.4164  12.8992  14.2867  16.4861  17.2721

     occupation numbers 
     1.0000   1.0000   1.0000   1.0000   1.0000   1.0000   1.0000   1.0000
     1.0000   1.0000   1.0000   0.0000   0.0000   0.0000   0.0000

          k = 0.0000-0.0000-0.5054 (   736 PWs)   bands (ev):

   -29.1373 -11.7801 -10.8098 -10.0678 -10.0678  -5.1674   4.5439   5.4888
     5.4888   9.5993   9.5993  12.5736  12.9737  16.4307  17.1345

     occupation numbers 
     1.0000   1.0000   1.0000   1.0000   1.0000   1.0000   1.0000   1.0000
     1.0000   1.0000   1.0000   0.0000   0.0000   0.0000   0.0000

     the Fermi energy is    10.7098 ev

!    total energy              =    -138.99136162 Ry
     Harris-Foulkes estimate   =    -138.99136051 Ry
     estimated scf accuracy    <       0.00000001 Ry

     The total energy is the sum of the following terms:

     one-electron contribution =     -29.01375705 Ry
     hartree contribution      =      27.21425210 Ry
     xc contribution           =     -26.11124256 Ry
     ewald contribution        =    -111.08061410 Ry
     smearing contrib. (-TS)   =      -0.00000000 Ry

     convergence has been achieved in   7 iterations

     negative rho (up, down):  1.857E-04 0.000E+00

     Forces acting on atoms (cartesian axes, Ry/au):

     atom    1 type  1   force =    -0.00000000    0.00000000    0.00000000
     atom    2 type  2   force =     0.00000000   -0.00000000   -0.00189617
     atom    3 type  2   force =    -0.00000000   -0.00000000    0.00189617
     The non-local contrib.  to forces
     atom    1 type  1   force =    -0.00000000    0.00000000    0.00000000
     atom    2 type  2   force =     0.00000000   -0.00000000    1.79321350
     atom    3 type  2   force =     0.00000000    0.00000000   -1.79321350
     The ionic contribution  to forces
     atom    1 type  1   force =    -0.00000000   -0.00000000    0.00000000
     atom    2 type  2   force =     0.00000000    0.00000000   -6.73269588
     atom    3 type  2   force =     0.00000000   -0.00000000    6.73269588
     The local contribution  to forces
     atom    1 type  1   force =    -0.00000000   -0.00000000    0.00000000
     atom    2 type  2   force =     0.00000000    0.00000000    4.93764694
     atom    3 type  2   force =     0.00000000   -0.00000000   -4.93764694
     The core correction contribution to forces
     atom    1 type  1   force =    -0.00000000   -0.00000000   -0.00000000
     atom    2 type  2   force =     0.00000000    0.00000000    0.00000000
     atom    3 type  2   force =     0.00000000    0.00000000    0.00000000
     The Hubbard contrib.    to forces
     atom    1 type  1   force =     0.00000000    0.00000000    0.00000000
     atom    2 type  2   force =     0.00000000    0.00000000    0.00000000
     atom    3 type  2   force =     0.00000000    0.00000000    0.00000000
     The SCF correction term to forces
     atom    1 type  1   force =     0.00000000   -0.00000000    0.00000000
     atom    2 type  2   force =    -0.00000000   -0.00000000   -0.00006074
     atom    3 type  2   force =     0.00000000    0.00000000    0.00006074

     Total force =     0.002682     Total SCF correction =     0.000086


     Computing stress (Cartesian axis) and pressure


     negative rho (up, down):  1.857E-04 0.000E+00
          total   stress  (Ry/bohr**3)                   (kbar)     P=  157.56
   0.00106157  -0.00000000  -0.00000000        156.16     -0.00     -0.00
  -0.00000000   0.00106157   0.00000000         -0.00    156.16      0.00
  -0.00000000   0.00000000   0.00109002         -0.00      0.00    160.35

     kinetic stress (kbar)  18958.31     -0.00     -0.00
                               -0.00  18958.31      0.00
                               -0.00      0.00  16879.24

     local   stress (kbar)  -7702.18     -0.00     -0.00
                               -0.00  -7702.18      0.00
                               -0.00      0.00  -6653.72

     nonloc. stress (kbar)  14052.80     -0.00     -0.00
                               -0.00  14052.80      0.00
                               -0.00      0.00  13098.31

     hartree stress (kbar)   6197.26     -0.00      0.00
                               -0.00   6197.26     -0.00
                                0.00     -0.00   6057.67

     exc-cor stress (kbar)  -4397.70      0.00      0.00
                                0.00  -4397.70     -0.00
                                0.00     -0.00  -4386.35

     corecor stress (kbar)  -1140.78     -0.00     -0.00
                               -0.00  -1140.78     -0.00
                               -0.00      0.00  -1141.46

     ewald   stress (kbar) -25811.54     -0.00      0.00
                               -0.00 -25811.54      0.00
                                0.00      0.00 -23693.34

     hubbard stress (kbar)      0.00      0.00      0.00
                                0.00      0.00      0.00
                                0.00      0.00      0.00

     london  stress (kbar)      0.00      0.00      0.00
                                0.00      0.00      0.00
                                0.00      0.00      0.00

     DFT-D3  stress (kbar)      0.00      0.00      0.00
                                0.00      0.00      0.00
                                0.00      0.00      0.00

     XDM     stress (kbar)      0.00      0.00      0.00
                                0.00      0.00      0.00
                                0.00      0.00      0.00

     dft-nl  stress (kbar)      0.00      0.00      0.00
                                0.00      0.00      0.00
                                0.00      0.00      0.00

     TS-vdW  stress (kbar)      0.00      0.00      0.00
                                0.00      0.00      0.00
                                0.00      0.00      0.00



     Writing output data file CaO2.save/
 
     init_run     :      4.55s CPU      4.70s WALL (       2 calls)
     electrons    :    249.12s CPU    252.82s WALL (       9 calls)
     update_pot   :      9.12s CPU      9.14s WALL (       7 calls)
     forces       :      6.79s CPU      6.92s WALL (       9 calls)
     stress       :     14.39s CPU     14.80s WALL (       9 calls)

     Called by init_run:
     wfcinit      :      2.04s CPU      2.06s WALL (       2 calls)
     wfcinit:atom :      0.03s CPU      0.03s WALL (     108 calls)
     wfcinit:wfcr :      1.91s CPU      1.94s WALL (     108 calls)
     potinit      :      0.47s CPU      0.48s WALL (       2 calls)
     hinit0       :      1.91s CPU      1.92s WALL (       2 calls)

     Called by electrons:
     c_bands      :    203.63s CPU    205.15s WALL (      72 calls)
     sum_band     :     38.09s CPU     39.21s WALL (      72 calls)
     v_of_rho     :      3.53s CPU      3.55s WALL (      81 calls)
     v_h          :      0.14s CPU      0.14s WALL (      81 calls)
     v_xc         :      4.13s CPU      4.16s WALL (      99 calls)
     newd         :      4.27s CPU      5.41s WALL (      81 calls)
     mix_rho      :      0.27s CPU      0.28s WALL (      72 calls)

     Called by c_bands:
     init_us_2    :      3.27s CPU      3.29s WALL (    8856 calls)
     cegterg      :    196.39s CPU    197.58s WALL (    3888 calls)

     Called by sum_band:
     sum_band:bec :      0.07s CPU      0.07s WALL (    3888 calls)
     addusdens    :      4.57s CPU      5.53s WALL (      72 calls)

     Called by *egterg:
     h_psi        :    175.92s CPU    176.90s WALL (   16324 calls)
     s_psi        :      3.04s CPU      3.07s WALL (   16324 calls)
     g_psi        :      0.69s CPU      0.70s WALL (   12328 calls)
     cdiaghg      :      6.85s CPU      6.89s WALL (   15838 calls)
     cegterg:over :      4.50s CPU      4.53s WALL (   12328 calls)
     cegterg:upda :      3.22s CPU      3.24s WALL (   12328 calls)
     cegterg:last :      1.65s CPU      1.65s WALL (    4285 calls)

     Called by h_psi:
     h_psi:pot    :    175.57s CPU    176.52s WALL (   16324 calls)
     h_psi:calbec :      3.37s CPU      3.41s WALL (   16324 calls)
     vloc_psi     :    168.89s CPU    169.75s WALL (   16324 calls)
     add_vuspsi   :      3.20s CPU      3.23s WALL (   16324 calls)

     General routines
     calbec       :      5.01s CPU      5.05s WALL (   22642 calls)
     fft          :      1.77s CPU      1.77s WALL (    1276 calls)
     ffts         :      0.03s CPU      0.03s WALL (     153 calls)
     fftw         :    182.30s CPU    182.90s WALL (  394258 calls)
     interpolate  :      0.15s CPU      0.15s WALL (      81 calls)
 
 
     PWSCF        :  4m44.92s CPU     4m49.64s WALL

 
   This run was terminated on:  16:49:21   2Apr2021            

=------------------------------------------------------------------------------=
   JOB DONE.
=------------------------------------------------------------------------------=
