
     Program PWSCF v.6.4.1 starts on 13Mar2020 at  6: 2:22 

     This program is part of the open-source Quantum ESPRESSO suite
     for quantum simulation of materials; please cite
         "P. Giannozzi et al., J. Phys.:Condens. Matter 21 395502 (2009);
         "P. Giannozzi et al., J. Phys.:Condens. Matter 29 465901 (2017);
          URL http://www.quantum-espresso.org", 
     in publications or presentations arising from this work. More details at
     http://www.quantum-espresso.org/quote

     Parallel version (MPI), running on     8 processors

     MPI processes distributed on     1 nodes
     R & G space division:  proc/nbgrp/npool/nimage =       8
     Waiting for input...
     Reading input from standard input

     Current dimensions of program PWSCF are:
     Max number of different atomic species (ntypx) = 10
     Max number of k-points (npk) =  40000
     Max angular momentum in pseudopotentials (lmaxx) =  3

     Subspace diagonalization in iterative solution of the eigenvalue problem:
     a serial algorithm will be used

 
     Parallelization info
     --------------------
     sticks:   dense  smooth     PW     G-vecs:    dense   smooth      PW
     Min         105      45     15                 2005      585     111
     Max         106      46     16                 2007      587     114
     Sum         847     367    121                16049     4693     893
 


     bravais-lattice index     =            2
     lattice parameter (alat)  =       8.7819  a.u.
     unit-cell volume          =     169.3210 (a.u.)^3
     number of atoms/cell      =            2
     number of atomic types    =            2
     number of electrons       =        16.00
     number of Kohn-Sham states=           12
     kinetic-energy cutoff     =      35.0000  Ry
     charge density cutoff     =     315.0000  Ry
     convergence threshold     =      1.0E-06
     mixing beta               =       0.4000
     number of iterations used =            8  plain     mixing
     Exchange-correlation      = SLA PW PBE PBE ( 1  4  3  4 0 0)
     nstep                     =          100


     celldm(1)=   8.781935  celldm(2)=   0.000000  celldm(3)=   0.000000
     celldm(4)=   0.000000  celldm(5)=   0.000000  celldm(6)=   0.000000

     crystal axes: (cart. coord. in units of alat)
               a(1) = (  -0.500000   0.000000   0.500000 )  
               a(2) = (   0.000000   0.500000   0.500000 )  
               a(3) = (  -0.500000   0.500000   0.000000 )  

     reciprocal axes: (cart. coord. in units 2 pi/alat)
               b(1) = ( -1.000000 -1.000000  1.000000 )  
               b(2) = (  1.000000  1.000000  1.000000 )  
               b(3) = ( -1.000000  1.000000 -1.000000 )  


     PseudoPot. # 1 for Ca read from file:
     ../pseudo/Ca.pbe-nsp-van.UPF
     MD5 check sum: cdab9c70410076c6adf7f3c9fd3601e0
     Pseudo is Ultrasoft + core correction, Zval = 10.0
     Generated by new atomic code, or converted to UPF format
     Using radial grid of  845 points,  6 beta functions with: 
                l(1) =   0
                l(2) =   0
                l(3) =   1
                l(4) =   1
                l(5) =   2
                l(6) =   2
     Q(r) pseudized with  6 coefficients,  rinner =    1.200   1.200   1.200
                                                       1.200   1.200

     PseudoPot. # 2 for O  read from file:
     ../pseudo/O.pbe-van_ak.UPF
     MD5 check sum: 572909515f9aa9498032b6eb5528d5f9
     Pseudo is Ultrasoft, Zval =  6.0
     Generated by new atomic code, or converted to UPF format
     Using radial grid of  737 points,  4 beta functions with: 
                l(1) =   0
                l(2) =   0
                l(3) =   1
                l(4) =   1
     Q(r) pseudized with  8 coefficients,  rinner =    0.800   0.800   0.800


     atomic species   valence    mass     pseudopotential
        Ca            10.00    40.07800     Ca( 1.00)
        O              6.00    15.99940     O ( 1.00)

     48 Sym. Ops., with inversion, found


                                    s                        frac. trans.

      isym =  1     identity                                     

 cryst.   s( 1) = (     1          0          0      )
                  (     0          1          0      )
                  (     0          0          1      )

 cart.    s( 1) = (  1.0000000  0.0000000  0.0000000 )
                  (  0.0000000  1.0000000  0.0000000 )
                  (  0.0000000  0.0000000  1.0000000 )


      isym =  2     180 deg rotation - cart. axis [0,0,1]        

 cryst.   s( 2) = (     0          1         -1      )
                  (     1          0         -1      )
                  (     0          0         -1      )

 cart.    s( 2) = ( -1.0000000  0.0000000  0.0000000 )
                  (  0.0000000 -1.0000000  0.0000000 )
                  (  0.0000000  0.0000000  1.0000000 )


      isym =  3     180 deg rotation - cart. axis [0,1,0]        

 cryst.   s( 3) = (    -1          0          0      )
                  (    -1          0          1      )
                  (    -1          1          0      )

 cart.    s( 3) = ( -1.0000000  0.0000000  0.0000000 )
                  (  0.0000000  1.0000000  0.0000000 )
                  (  0.0000000  0.0000000 -1.0000000 )


      isym =  4     180 deg rotation - cart. axis [1,0,0]        

 cryst.   s( 4) = (     0         -1          1      )
                  (     0         -1          0      )
                  (     1         -1          0      )

 cart.    s( 4) = (  1.0000000  0.0000000  0.0000000 )
                  (  0.0000000 -1.0000000  0.0000000 )
                  (  0.0000000  0.0000000 -1.0000000 )


      isym =  5     180 deg rotation - cart. axis [1,1,0]        

 cryst.   s( 5) = (     0         -1          0      )
                  (    -1          0          0      )
                  (     0          0         -1      )

 cart.    s( 5) = (  0.0000000  1.0000000  0.0000000 )
                  (  1.0000000  0.0000000  0.0000000 )
                  (  0.0000000  0.0000000 -1.0000000 )


      isym =  6     180 deg rotation - cart. axis [1,-1,0]       

 cryst.   s( 6) = (    -1          0          1      )
                  (     0         -1          1      )
                  (     0          0          1      )

 cart.    s( 6) = (  0.0000000 -1.0000000  0.0000000 )
                  ( -1.0000000  0.0000000  0.0000000 )
                  (  0.0000000  0.0000000 -1.0000000 )


      isym =  7      90 deg rotation - cart. axis [0,0,-1]       

 cryst.   s( 7) = (     0          1          0      )
                  (     0          1         -1      )
                  (    -1          1          0      )

 cart.    s( 7) = (  0.0000000  1.0000000  0.0000000 )
                  ( -1.0000000  0.0000000  0.0000000 )
                  (  0.0000000  0.0000000  1.0000000 )


      isym =  8      90 deg rotation - cart. axis [0,0,1]        

 cryst.   s( 8) = (     1          0         -1      )
                  (     1          0          0      )
                  (     1         -1          0      )

 cart.    s( 8) = (  0.0000000 -1.0000000  0.0000000 )
                  (  1.0000000  0.0000000  0.0000000 )
                  (  0.0000000  0.0000000  1.0000000 )


      isym =  9     180 deg rotation - cart. axis [1,0,1]        

 cryst.   s( 9) = (    -1          0          0      )
                  (     0          0         -1      )
                  (     0         -1          0      )

 cart.    s( 9) = (  0.0000000  0.0000000  1.0000000 )
                  (  0.0000000 -1.0000000  0.0000000 )
                  (  1.0000000  0.0000000  0.0000000 )


      isym = 10     180 deg rotation - cart. axis [-1,0,1]       

 cryst.   s(10) = (     1          0          0      )
                  (     1         -1          0      )
                  (     1          0         -1      )

 cart.    s(10) = (  0.0000000  0.0000000 -1.0000000 )
                  (  0.0000000 -1.0000000  0.0000000 )
                  ( -1.0000000  0.0000000  0.0000000 )


      isym = 11      90 deg rotation - cart. axis [0,1,0]        

 cryst.   s(11) = (     0          1         -1      )
                  (    -1          1          0      )
                  (     0          1          0      )

 cart.    s(11) = (  0.0000000  0.0000000  1.0000000 )
                  (  0.0000000  1.0000000  0.0000000 )
                  ( -1.0000000  0.0000000  0.0000000 )


      isym = 12      90 deg rotation - cart. axis [0,-1,0]       

 cryst.   s(12) = (     0         -1          1      )
                  (     0          0          1      )
                  (    -1          0          1      )

 cart.    s(12) = (  0.0000000  0.0000000 -1.0000000 )
                  (  0.0000000  1.0000000  0.0000000 )
                  (  1.0000000  0.0000000  0.0000000 )


      isym = 13     180 deg rotation - cart. axis [0,1,1]        

 cryst.   s(13) = (    -1          1          0      )
                  (     0          1          0      )
                  (     0          1         -1      )

 cart.    s(13) = ( -1.0000000  0.0000000  0.0000000 )
                  (  0.0000000  0.0000000  1.0000000 )
                  (  0.0000000  1.0000000  0.0000000 )


      isym = 14     180 deg rotation - cart. axis [0,1,-1]       

 cryst.   s(14) = (     0          0         -1      )
                  (     0         -1          0      )
                  (    -1          0          0      )

 cart.    s(14) = ( -1.0000000  0.0000000  0.0000000 )
                  (  0.0000000  0.0000000 -1.0000000 )
                  (  0.0000000 -1.0000000  0.0000000 )


      isym = 15      90 deg rotation - cart. axis [-1,0,0]       

 cryst.   s(15) = (     0          0          1      )
                  (    -1          0          1      )
                  (     0         -1          1      )

 cart.    s(15) = (  1.0000000  0.0000000  0.0000000 )
                  (  0.0000000  0.0000000  1.0000000 )
                  (  0.0000000 -1.0000000  0.0000000 )


      isym = 16      90 deg rotation - cart. axis [1,0,0]        

 cryst.   s(16) = (     1         -1          0      )
                  (     1          0         -1      )
                  (     1          0          0      )

 cart.    s(16) = (  1.0000000  0.0000000  0.0000000 )
                  (  0.0000000  0.0000000 -1.0000000 )
                  (  0.0000000  1.0000000  0.0000000 )


      isym = 17     120 deg rotation - cart. axis [-1,-1,-1]     

 cryst.   s(17) = (    -1          0          1      )
                  (    -1          1          0      )
                  (    -1          0          0      )

 cart.    s(17) = (  0.0000000  1.0000000  0.0000000 )
                  (  0.0000000  0.0000000  1.0000000 )
                  (  1.0000000  0.0000000  0.0000000 )


      isym = 18     120 deg rotation - cart. axis [-1,1,1]       

 cryst.   s(18) = (     0          1          0      )
                  (     0          0          1      )
                  (     1          0          0      )

 cart.    s(18) = (  0.0000000 -1.0000000  0.0000000 )
                  (  0.0000000  0.0000000  1.0000000 )
                  ( -1.0000000  0.0000000  0.0000000 )


      isym = 19     120 deg rotation - cart. axis [1,1,-1]       

 cryst.   s(19) = (     1          0         -1      )
                  (     0          0         -1      )
                  (     0          1         -1      )

 cart.    s(19) = (  0.0000000  1.0000000  0.0000000 )
                  (  0.0000000  0.0000000 -1.0000000 )
                  ( -1.0000000  0.0000000  0.0000000 )


      isym = 20     120 deg rotation - cart. axis [1,-1,1]       

 cryst.   s(20) = (     0         -1          0      )
                  (     1         -1          0      )
                  (     0         -1          1      )

 cart.    s(20) = (  0.0000000 -1.0000000  0.0000000 )
                  (  0.0000000  0.0000000 -1.0000000 )
                  (  1.0000000  0.0000000  0.0000000 )


      isym = 21     120 deg rotation - cart. axis [1,1,1]        

 cryst.   s(21) = (     0          0         -1      )
                  (     0          1         -1      )
                  (     1          0         -1      )

 cart.    s(21) = (  0.0000000  0.0000000  1.0000000 )
                  (  1.0000000  0.0000000  0.0000000 )
                  (  0.0000000  1.0000000  0.0000000 )


      isym = 22     120 deg rotation - cart. axis [-1,1,-1]      

 cryst.   s(22) = (    -1          1          0      )
                  (    -1          0          0      )
                  (    -1          0          1      )

 cart.    s(22) = (  0.0000000  0.0000000  1.0000000 )
                  ( -1.0000000  0.0000000  0.0000000 )
                  (  0.0000000 -1.0000000  0.0000000 )


      isym = 23     120 deg rotation - cart. axis [1,-1,-1]      

 cryst.   s(23) = (     0          0          1      )
                  (     1          0          0      )
                  (     0          1          0      )

 cart.    s(23) = (  0.0000000  0.0000000 -1.0000000 )
                  ( -1.0000000  0.0000000  0.0000000 )
                  (  0.0000000  1.0000000  0.0000000 )


      isym = 24     120 deg rotation - cart. axis [-1,-1,1]      

 cryst.   s(24) = (     1         -1          0      )
                  (     0         -1          1      )
                  (     0         -1          0      )

 cart.    s(24) = (  0.0000000  0.0000000 -1.0000000 )
                  (  1.0000000  0.0000000  0.0000000 )
                  (  0.0000000 -1.0000000  0.0000000 )


      isym = 25     inversion                                    

 cryst.   s(25) = (    -1          0          0      )
                  (     0         -1          0      )
                  (     0          0         -1      )

 cart.    s(25) = ( -1.0000000  0.0000000  0.0000000 )
                  (  0.0000000 -1.0000000  0.0000000 )
                  (  0.0000000  0.0000000 -1.0000000 )


      isym = 26     inv. 180 deg rotation - cart. axis [0,0,1]   

 cryst.   s(26) = (     0         -1          1      )
                  (    -1          0          1      )
                  (     0          0          1      )

 cart.    s(26) = (  1.0000000  0.0000000  0.0000000 )
                  (  0.0000000  1.0000000  0.0000000 )
                  (  0.0000000  0.0000000 -1.0000000 )


      isym = 27     inv. 180 deg rotation - cart. axis [0,1,0]   

 cryst.   s(27) = (     1          0          0      )
                  (     1          0         -1      )
                  (     1         -1          0      )

 cart.    s(27) = (  1.0000000  0.0000000  0.0000000 )
                  (  0.0000000 -1.0000000  0.0000000 )
                  (  0.0000000  0.0000000  1.0000000 )


      isym = 28     inv. 180 deg rotation - cart. axis [1,0,0]   

 cryst.   s(28) = (     0          1         -1      )
                  (     0          1          0      )
                  (    -1          1          0      )

 cart.    s(28) = ( -1.0000000  0.0000000  0.0000000 )
                  (  0.0000000  1.0000000  0.0000000 )
                  (  0.0000000  0.0000000  1.0000000 )


      isym = 29     inv. 180 deg rotation - cart. axis [1,1,0]   

 cryst.   s(29) = (     0          1          0      )
                  (     1          0          0      )
                  (     0          0          1      )

 cart.    s(29) = (  0.0000000 -1.0000000  0.0000000 )
                  ( -1.0000000  0.0000000  0.0000000 )
                  (  0.0000000  0.0000000  1.0000000 )


      isym = 30     inv. 180 deg rotation - cart. axis [1,-1,0]  

 cryst.   s(30) = (     1          0         -1      )
                  (     0          1         -1      )
                  (     0          0         -1      )

 cart.    s(30) = (  0.0000000  1.0000000  0.0000000 )
                  (  1.0000000  0.0000000  0.0000000 )
                  (  0.0000000  0.0000000  1.0000000 )


      isym = 31     inv.  90 deg rotation - cart. axis [0,0,-1]  

 cryst.   s(31) = (     0         -1          0      )
                  (     0         -1          1      )
                  (     1         -1          0      )

 cart.    s(31) = (  0.0000000 -1.0000000  0.0000000 )
                  (  1.0000000  0.0000000  0.0000000 )
                  (  0.0000000  0.0000000 -1.0000000 )


      isym = 32     inv.  90 deg rotation - cart. axis [0,0,1]   

 cryst.   s(32) = (    -1          0          1      )
                  (    -1          0          0      )
                  (    -1          1          0      )

 cart.    s(32) = (  0.0000000  1.0000000  0.0000000 )
                  ( -1.0000000  0.0000000  0.0000000 )
                  (  0.0000000  0.0000000 -1.0000000 )


      isym = 33     inv. 180 deg rotation - cart. axis [1,0,1]   

 cryst.   s(33) = (     1          0          0      )
                  (     0          0          1      )
                  (     0          1          0      )

 cart.    s(33) = (  0.0000000  0.0000000 -1.0000000 )
                  (  0.0000000  1.0000000  0.0000000 )
                  ( -1.0000000  0.0000000  0.0000000 )


      isym = 34     inv. 180 deg rotation - cart. axis [-1,0,1]  

 cryst.   s(34) = (    -1          0          0      )
                  (    -1          1          0      )
                  (    -1          0          1      )

 cart.    s(34) = (  0.0000000  0.0000000  1.0000000 )
                  (  0.0000000  1.0000000  0.0000000 )
                  (  1.0000000  0.0000000  0.0000000 )


      isym = 35     inv.  90 deg rotation - cart. axis [0,1,0]   

 cryst.   s(35) = (     0         -1          1      )
                  (     1         -1          0      )
                  (     0         -1          0      )

 cart.    s(35) = (  0.0000000  0.0000000 -1.0000000 )
                  (  0.0000000 -1.0000000  0.0000000 )
                  (  1.0000000  0.0000000  0.0000000 )


      isym = 36     inv.  90 deg rotation - cart. axis [0,-1,0]  

 cryst.   s(36) = (     0          1         -1      )
                  (     0          0         -1      )
                  (     1          0         -1      )

 cart.    s(36) = (  0.0000000  0.0000000  1.0000000 )
                  (  0.0000000 -1.0000000  0.0000000 )
                  ( -1.0000000  0.0000000  0.0000000 )


      isym = 37     inv. 180 deg rotation - cart. axis [0,1,1]   

 cryst.   s(37) = (     1         -1          0      )
                  (     0         -1          0      )
                  (     0         -1          1      )

 cart.    s(37) = (  1.0000000  0.0000000  0.0000000 )
                  (  0.0000000  0.0000000 -1.0000000 )
                  (  0.0000000 -1.0000000  0.0000000 )


      isym = 38     inv. 180 deg rotation - cart. axis [0,1,-1]  

 cryst.   s(38) = (     0          0          1      )
                  (     0          1          0      )
                  (     1          0          0      )

 cart.    s(38) = (  1.0000000  0.0000000  0.0000000 )
                  (  0.0000000  0.0000000  1.0000000 )
                  (  0.0000000  1.0000000  0.0000000 )


      isym = 39     inv.  90 deg rotation - cart. axis [-1,0,0]  

 cryst.   s(39) = (     0          0         -1      )
                  (     1          0         -1      )
                  (     0          1         -1      )

 cart.    s(39) = ( -1.0000000  0.0000000  0.0000000 )
                  (  0.0000000  0.0000000 -1.0000000 )
                  (  0.0000000  1.0000000  0.0000000 )


      isym = 40     inv.  90 deg rotation - cart. axis [1,0,0]   

 cryst.   s(40) = (    -1          1          0      )
                  (    -1          0          1      )
                  (    -1          0          0      )

 cart.    s(40) = ( -1.0000000  0.0000000  0.0000000 )
                  (  0.0000000  0.0000000  1.0000000 )
                  (  0.0000000 -1.0000000  0.0000000 )


      isym = 41     inv. 120 deg rotation - cart. axis [-1,-1,-1]

 cryst.   s(41) = (     1          0         -1      )
                  (     1         -1          0      )
                  (     1          0          0      )

 cart.    s(41) = (  0.0000000 -1.0000000  0.0000000 )
                  (  0.0000000  0.0000000 -1.0000000 )
                  ( -1.0000000  0.0000000  0.0000000 )


      isym = 42     inv. 120 deg rotation - cart. axis [-1,1,1]  

 cryst.   s(42) = (     0         -1          0      )
                  (     0          0         -1      )
                  (    -1          0          0      )

 cart.    s(42) = (  0.0000000  1.0000000  0.0000000 )
                  (  0.0000000  0.0000000 -1.0000000 )
                  (  1.0000000  0.0000000  0.0000000 )


      isym = 43     inv. 120 deg rotation - cart. axis [1,1,-1]  

 cryst.   s(43) = (    -1          0          1      )
                  (     0          0          1      )
                  (     0         -1          1      )

 cart.    s(43) = (  0.0000000 -1.0000000  0.0000000 )
                  (  0.0000000  0.0000000  1.0000000 )
                  (  1.0000000  0.0000000  0.0000000 )


      isym = 44     inv. 120 deg rotation - cart. axis [1,-1,1]  

 cryst.   s(44) = (     0          1          0      )
                  (    -1          1          0      )
                  (     0          1         -1      )

 cart.    s(44) = (  0.0000000  1.0000000  0.0000000 )
                  (  0.0000000  0.0000000  1.0000000 )
                  ( -1.0000000  0.0000000  0.0000000 )


      isym = 45     inv. 120 deg rotation - cart. axis [1,1,1]   

 cryst.   s(45) = (     0          0          1      )
                  (     0         -1          1      )
                  (    -1          0          1      )

 cart.    s(45) = (  0.0000000  0.0000000 -1.0000000 )
                  ( -1.0000000  0.0000000  0.0000000 )
                  (  0.0000000 -1.0000000  0.0000000 )


      isym = 46     inv. 120 deg rotation - cart. axis [-1,1,-1] 

 cryst.   s(46) = (     1         -1          0      )
                  (     1          0          0      )
                  (     1          0         -1      )

 cart.    s(46) = (  0.0000000  0.0000000 -1.0000000 )
                  (  1.0000000  0.0000000  0.0000000 )
                  (  0.0000000  1.0000000  0.0000000 )


      isym = 47     inv. 120 deg rotation - cart. axis [1,-1,-1] 

 cryst.   s(47) = (     0          0         -1      )
                  (    -1          0          0      )
                  (     0         -1          0      )

 cart.    s(47) = (  0.0000000  0.0000000  1.0000000 )
                  (  1.0000000  0.0000000  0.0000000 )
                  (  0.0000000 -1.0000000  0.0000000 )


      isym = 48     inv. 120 deg rotation - cart. axis [-1,-1,1] 

 cryst.   s(48) = (    -1          1          0      )
                  (     0          1         -1      )
                  (     0          1          0      )

 cart.    s(48) = (  0.0000000  0.0000000  1.0000000 )
                  ( -1.0000000  0.0000000  0.0000000 )
                  (  0.0000000  1.0000000  0.0000000 )


     point group O_h (m-3m) 
     there are 10 classes
     the character table:

       E     8C3   3C2   6C4   6C2'  i     8S6   3s_h  6S4   6s_d 
A_1g   1.00  1.00  1.00  1.00  1.00  1.00  1.00  1.00  1.00  1.00
A_2g   1.00  1.00  1.00 -1.00 -1.00  1.00  1.00  1.00 -1.00 -1.00
E_g    2.00 -1.00  2.00  0.00  0.00  2.00 -1.00  2.00  0.00  0.00
T_1g   3.00  0.00 -1.00  1.00 -1.00  3.00  0.00 -1.00  1.00 -1.00
T_2g   3.00  0.00 -1.00 -1.00  1.00  3.00  0.00 -1.00 -1.00  1.00
A_1u   1.00  1.00  1.00  1.00  1.00 -1.00 -1.00 -1.00 -1.00 -1.00
A_2u   1.00  1.00  1.00 -1.00 -1.00 -1.00 -1.00 -1.00  1.00  1.00
E_u    2.00 -1.00  2.00  0.00  0.00 -2.00  1.00 -2.00  0.00  0.00
T_1u   3.00  0.00 -1.00  1.00 -1.00 -3.00  0.00  1.00 -1.00  1.00
T_2u   3.00  0.00 -1.00 -1.00  1.00 -3.00  0.00  1.00  1.00 -1.00

     the symmetry operations in each class and the name of the first element:

     E        1
          identity                                               
     8C3     17   19   20   18   24   21   22   23
          120 deg rotation - cart. axis [-1,-1,-1]               
     3C2      2    4    3
          180 deg rotation - cart. axis [0,0,1]                  
     6C4      7    8   15   16   12   11
           90 deg rotation - cart. axis [0,0,-1]                 
     6C2'     5    6   14   13   10    9
          180 deg rotation - cart. axis [1,1,0]                  
     i       25
          inversion                                              
     8S6     41   43   44   42   48   45   46   47
          inv. 120 deg rotation - cart. axis [-1,-1,-1]          
     3s_h    26   28   27
          inv. 180 deg rotation - cart. axis [0,0,1]             
     6S4     31   32   39   40   36   35
          inv.  90 deg rotation - cart. axis [0,0,-1]            
     6s_d    29   30   38   37   34   33
          inv. 180 deg rotation - cart. axis [1,1,0]             

   Cartesian axes

     site n.     atom                  positions (alat units)
         1           Ca  tau(   1) = (   0.0000000   0.0000000   0.0000000  )
         2           O   tau(   2) = (  -0.5000000   0.5000000   0.5000000  )

   Crystallographic axes

     site n.     atom                  positions (cryst. coord.)
         1           Ca  tau(   1) = (  0.0000000  0.0000000  0.0000000  )
         2           O   tau(   2) = (  0.5000000  0.5000000  0.5000000  )

     number of k points=     8  gaussian smearing, width (Ry)=  0.0100
                       cart. coord. in units 2pi/alat
        k(    1) = (   0.0000000   0.0000000   0.0000000), wk =   0.0312500
        k(    2) = (  -0.2500000   0.2500000  -0.2500000), wk =   0.2500000
        k(    3) = (   0.5000000  -0.5000000   0.5000000), wk =   0.1250000
        k(    4) = (   0.0000000   0.5000000   0.0000000), wk =   0.1875000
        k(    5) = (   0.7500000  -0.2500000   0.7500000), wk =   0.7500000
        k(    6) = (   0.5000000   0.0000000   0.5000000), wk =   0.3750000
        k(    7) = (   0.0000000  -1.0000000   0.0000000), wk =   0.0937500
        k(    8) = (  -0.5000000  -1.0000000   0.0000000), wk =   0.1875000

                       cryst. coord.
        k(    1) = (   0.0000000   0.0000000   0.0000000), wk =   0.0312500
        k(    2) = (   0.0000000   0.0000000   0.2500000), wk =   0.2500000
        k(    3) = (   0.0000000   0.0000000  -0.5000000), wk =   0.1250000
        k(    4) = (   0.0000000   0.2500000   0.2500000), wk =   0.1875000
        k(    5) = (   0.0000000   0.2500000  -0.5000000), wk =   0.7500000
        k(    6) = (   0.0000000   0.2500000  -0.2500000), wk =   0.3750000
        k(    7) = (   0.0000000  -0.5000000  -0.5000000), wk =   0.0937500
        k(    8) = (   0.2500000  -0.5000000  -0.2500000), wk =   0.1875000

     Dense  grid:    16049 G-vectors     FFT dimensions: (  36,  36,  36)

     Smooth grid:     4693 G-vectors     FFT dimensions: (  24,  24,  24)

     Dynamical RAM for                 wfc:       0.01 MB

     Dynamical RAM for     wfc (w. buffer):       0.12 MB

     Dynamical RAM for           str. fact:       0.06 MB

     Dynamical RAM for           local pot:       0.00 MB

     Dynamical RAM for          nlocal pot:       0.03 MB

     Dynamical RAM for                qrad:       7.96 MB

     Dynamical RAM for          rho,v,vnew:       0.24 MB

     Dynamical RAM for               rhoin:       0.08 MB

     Dynamical RAM for            rho*nmix:       0.49 MB

     Dynamical RAM for           G-vectors:       0.12 MB

     Dynamical RAM for          h,s,v(r/c):       0.11 MB

     Dynamical RAM for          <psi|beta>:       0.00 MB

     Dynamical RAM for                 psi:       0.05 MB

     Dynamical RAM for                hpsi:       0.05 MB

     Dynamical RAM for                spsi:       0.05 MB

     Dynamical RAM for      wfcinit/wfcrot:       0.04 MB

     Dynamical RAM for           addusdens:       5.73 MB

     Dynamical RAM for          addusforce:       5.84 MB

     Dynamical RAM for         addusstress:       6.16 MB

     Estimated static dynamical RAM per process >       9.44 MB

     Estimated max dynamical RAM per process >      15.60 MB

     Estimated total dynamical RAM >     124.78 MB

     Check: negative core charge=   -0.000004

     Initial potential from superposition of free atoms

     starting charge   15.99454, renormalised to   16.00000

     negative rho (up, down):  1.848E-04 0.000E+00
     Starting wfcs are   14 randomized atomic wfcs

     total cpu time spent up to now is        2.9 secs

     Self-consistent Calculation

     iteration #  1     ecut=    35.00 Ry     beta= 0.40
     Davidson diagonalization with overlap
     ethr =  1.00E-02,  avg # of iterations =  2.5

     negative rho (up, down):  1.909E-04 0.000E+00

     total cpu time spent up to now is        3.0 secs

     total energy              =    -106.95102750 Ry
     Harris-Foulkes estimate   =    -107.19519950 Ry
     estimated scf accuracy    <       0.47010221 Ry

     iteration #  2     ecut=    35.00 Ry     beta= 0.40
     Davidson diagonalization with overlap
     ethr =  2.94E-03,  avg # of iterations =  2.5

     negative rho (up, down):  1.844E-04 0.000E+00

     total cpu time spent up to now is        3.1 secs

     total energy              =    -107.07157906 Ry
     Harris-Foulkes estimate   =    -107.09952630 Ry
     estimated scf accuracy    <       0.07475890 Ry

     iteration #  3     ecut=    35.00 Ry     beta= 0.40
     Davidson diagonalization with overlap
     ethr =  4.67E-04,  avg # of iterations =  2.6

     negative rho (up, down):  1.814E-04 0.000E+00

     total cpu time spent up to now is        3.3 secs

     total energy              =    -107.08655569 Ry
     Harris-Foulkes estimate   =    -107.08578319 Ry
     estimated scf accuracy    <       0.00565350 Ry

     iteration #  4     ecut=    35.00 Ry     beta= 0.40
     Davidson diagonalization with overlap
     ethr =  3.53E-05,  avg # of iterations =  2.3

     negative rho (up, down):  1.818E-04 0.000E+00

     total cpu time spent up to now is        3.4 secs

     total energy              =    -107.08692109 Ry
     Harris-Foulkes estimate   =    -107.08691453 Ry
     estimated scf accuracy    <       0.00002298 Ry

     iteration #  5     ecut=    35.00 Ry     beta= 0.40
     Davidson diagonalization with overlap
     ethr =  1.44E-07,  avg # of iterations =  4.1

     negative rho (up, down):  1.823E-04 0.000E+00

     total cpu time spent up to now is        3.6 secs

     total energy              =    -107.08696658 Ry
     Harris-Foulkes estimate   =    -107.08695729 Ry
     estimated scf accuracy    <       0.00000935 Ry

     iteration #  6     ecut=    35.00 Ry     beta= 0.40
     Davidson diagonalization with overlap
     ethr =  5.85E-08,  avg # of iterations =  2.8

     negative rho (up, down):  1.824E-04 0.000E+00

     total cpu time spent up to now is        3.7 secs

     total energy              =    -107.08696959 Ry
     Harris-Foulkes estimate   =    -107.08697049 Ry
     estimated scf accuracy    <       0.00000383 Ry

     iteration #  7     ecut=    35.00 Ry     beta= 0.40
     Davidson diagonalization with overlap
     ethr =  2.39E-08,  avg # of iterations =  2.3

     negative rho (up, down):  1.823E-04 0.000E+00

     total cpu time spent up to now is        3.8 secs

     End of self-consistent calculation

          k = 0.0000 0.0000 0.0000 (   609 PWs)   bands (ev):

   -28.2505  -8.9218  -8.9218  -8.9218  -6.7097   9.0116   9.0116   9.0116
    14.6196  15.4759  15.4759  15.4760

     occupation numbers 
     1.0000   1.0000   1.0000   1.0000   1.0000   1.0000   1.0000   1.0000
     0.0000   0.0000   0.0000   0.0000

          k =-0.2500 0.2500-0.2500 (   589 PWs)   bands (ev):

   -28.1709  -9.8968  -8.9560  -8.9560  -5.7235   7.3596   8.2296   8.2296
    15.5686  16.5630  16.5630  16.8236

     occupation numbers 
     1.0000   1.0000   1.0000   1.0000   1.0000   1.0000   1.0000   1.0000
     0.0000   0.0000   0.0000   0.0000

          k = 0.5000-0.5000 0.5000 (   580 PWs)   bands (ev):

   -28.0897 -10.5529  -8.9895  -8.9895  -5.0467   6.1342   7.6013   7.6013
    16.5585  17.9275  17.9275  18.3102

     occupation numbers 
     1.0000   1.0000   1.0000   1.0000   1.0000   1.0000   1.0000   1.0000
     0.0000   0.0000   0.0000   0.0000

          k = 0.0000 0.5000 0.0000 (   592 PWs)   bands (ev):

   -28.1461  -9.7212  -9.0807  -9.0807  -5.9432   7.1736   8.7064   8.7064
    13.7714  16.4616  17.5793  17.5795

     occupation numbers 
     1.0000   1.0000   1.0000   1.0000   1.0000   1.0000   1.0000   1.0000
     0.0000   0.0000   0.0000   0.0000

          k = 0.7500-0.2500 0.7500 (   598 PWs)   bands (ev):

   -28.0666 -10.0889  -9.2830  -9.1161  -5.6910   7.1301   7.8416   8.1158
    14.5438  17.4840  18.4978  18.6420

     occupation numbers 
     1.0000   1.0000   1.0000   1.0000   1.0000   1.0000   1.0000   1.0000
     0.0000   0.0000   0.0000   0.0000

          k = 0.5000 0.0000 0.5000 (   590 PWs)   bands (ev):

   -28.0919 -10.1469  -9.2955  -8.9924  -5.4350   6.7510   7.7199   8.1409
    15.8481  16.8699  17.2946  18.0713

     occupation numbers 
     1.0000   1.0000   1.0000   1.0000   1.0000   1.0000   1.0000   1.0000
     0.0000   0.0000   0.0000   0.0000

          k = 0.0000-1.0000 0.0000 (   588 PWs)   bands (ev):

   -28.0431  -9.7633  -9.2385  -9.2385  -6.4933   7.7778   8.6679   8.6679
    12.6037  17.8427  18.4839  19.2395

     occupation numbers 
     1.0000   1.0000   1.0000   1.0000   1.0000   1.0000   1.0000   1.0000
     0.0000   0.0000   0.0000   0.0000

          k =-0.5000-1.0000 0.0000 (   604 PWs)   bands (ev):

   -28.0412  -9.5962  -9.5058  -9.5058  -5.8662   7.5621   7.9656   7.9656
    15.6358  15.6358  18.1257  19.2457

     occupation numbers 
     1.0000   1.0000   1.0000   1.0000   1.0000   1.0000   1.0000   1.0000
     0.0000   0.0000   0.0000   0.0000

     the Fermi energy is    10.5103 ev

!    total energy              =    -107.08697078 Ry
     Harris-Foulkes estimate   =    -107.08697038 Ry
     estimated scf accuracy    <       0.00000005 Ry

     The total energy is the sum of the following terms:

     one-electron contribution =     -21.51661162 Ry
     hartree contribution      =      19.52156288 Ry
     xc contribution           =     -19.19864637 Ry
     ewald contribution        =     -85.89327566 Ry
     smearing contrib. (-TS)   =      -0.00000000 Ry

     convergence has been achieved in   7 iterations

     negative rho (up, down):  1.823E-04 0.000E+00

     Forces acting on atoms (cartesian axes, Ry/au):

     atom    1 type  1   force =     0.00000000    0.00000000    0.00000000
     atom    2 type  2   force =     0.00000000    0.00000000    0.00000000
     The non-local contrib.  to forces
     atom    1 type  1   force =     0.00000000    0.00000000    0.00000000
     atom    2 type  2   force =     0.00000000   -0.00000000   -0.00000000
     The ionic contribution  to forces
     atom    1 type  1   force =     0.00000000   -0.00000000   -0.00000000
     atom    2 type  2   force =    -0.00000000    0.00000000    0.00000000
     The local contribution  to forces
     atom    1 type  1   force =    -0.00000000   -0.00000000   -0.00000000
     atom    2 type  2   force =    -0.00000000    0.00000000    0.00000000
     The core correction contribution to forces
     atom    1 type  1   force =     0.00000000    0.00000000    0.00000000
     atom    2 type  2   force =     0.00000000    0.00000000    0.00000000
     The Hubbard contrib.    to forces
     atom    1 type  1   force =     0.00000000    0.00000000    0.00000000
     atom    2 type  2   force =     0.00000000    0.00000000    0.00000000
     The SCF correction term to forces
     atom    1 type  1   force =     0.00000000   -0.00000000    0.00000000
     atom    2 type  2   force =     0.00000000   -0.00000000   -0.00000000

     Total force =     0.000000     Total SCF correction =     0.000000


     Computing stress (Cartesian axis) and pressure


     negative rho (up, down):  1.823E-04 0.000E+00
          total   stress  (Ry/bohr**3)                   (kbar)     P=  154.58
   0.00105082   0.00000000   0.00000000        154.58      0.00      0.00
   0.00000000   0.00105082  -0.00000000          0.00    154.58     -0.00
   0.00000000  -0.00000000   0.00105082          0.00     -0.00    154.58

     kinetic stress (kbar)  15537.67     -0.00      0.00
                               -0.00  15537.67      0.00
                                0.00      0.00  15537.67

     local   stress (kbar)  -4127.76      0.00     -0.00
                                0.00  -4127.76     -0.00
                               -0.00     -0.00  -4127.76

     nonloc. stress (kbar)  13165.05     -0.00      0.00
                               -0.00  13165.05      0.00
                                0.00      0.00  13165.05

     hartree stress (kbar)   5653.41      0.00      0.00
                                0.00   5653.41      0.00
                                0.00      0.00   5653.41

     exc-cor stress (kbar)  -3736.23     -0.00      0.00
                               -0.00  -3736.23      0.00
                                0.00      0.00  -3736.23

     corecor stress (kbar)  -1463.02      0.00      0.00
                                0.00  -1463.02     -0.00
                                0.00     -0.00  -1463.02

     ewald   stress (kbar) -24874.53      0.00      0.00
                                0.00 -24874.53     -0.00
                                0.00     -0.00 -24874.53

     hubbard stress (kbar)      0.00      0.00      0.00
                                0.00      0.00      0.00
                                0.00      0.00      0.00

     london  stress (kbar)      0.00      0.00      0.00
                                0.00      0.00      0.00
                                0.00      0.00      0.00

     DFT-D3  stress (kbar)      0.00      0.00      0.00
                                0.00      0.00      0.00
                                0.00      0.00      0.00

     XDM     stress (kbar)      0.00      0.00      0.00
                                0.00      0.00      0.00
                                0.00      0.00      0.00

     dft-nl  stress (kbar)      0.00      0.00      0.00
                                0.00      0.00      0.00
                                0.00      0.00      0.00

     TS-vdW  stress (kbar)      0.00      0.00      0.00
                                0.00      0.00      0.00
                                0.00      0.00      0.00



     BFGS Geometry Optimization

     number of scf cycles    =   1
     number of bfgs steps    =   0

     enthalpy new            =    -106.9143176817 Ry

     new trust radius        =       0.0020258146 bohr
     new conv_thr            =       0.0000010000 Ry

     new unit-cell volume =    169.71667 a.u.^3 (    25.14942 Ang^3 )
     density =      3.70262 g/cm^3

CELL_PARAMETERS (alat=  8.78193528)
  -0.500389210  -0.000000000   0.500389210
   0.000000000   0.500389210   0.500389210
  -0.500389210   0.500389210  -0.000000000

ATOMIC_POSITIONS (crystal)
Ca       0.000000000   0.000000000   0.000000000
O        0.500000000   0.500000000   0.500000000



     Writing output data file CaO.save/
     NEW-OLD atomic charge density approx. for the potential

     Check: negative core charge=   -0.000004

     negative rho (up, down):  1.832E-04 0.000E+00
     extrapolated charge   16.03729, renormalised to   16.00000

     total cpu time spent up to now is        4.6 secs

     Self-consistent Calculation

     iteration #  1     ecut=    35.00 Ry     beta= 0.40
     Davidson diagonalization with overlap
     ethr =  1.00E-06,  avg # of iterations =  2.0

     negative rho (up, down):  1.831E-04 0.000E+00

     total cpu time spent up to now is        4.7 secs

     total energy              =    -107.08720098 Ry
     Harris-Foulkes estimate   =    -107.05039024 Ry
     estimated scf accuracy    <       0.00015214 Ry

     iteration #  2     ecut=    35.00 Ry     beta= 0.40
     Davidson diagonalization with overlap
     ethr =  9.51E-07,  avg # of iterations =  3.1

     negative rho (up, down):  1.831E-04 0.000E+00

     total cpu time spent up to now is        4.9 secs

     total energy              =    -107.08737920 Ry
     Harris-Foulkes estimate   =    -107.08745720 Ry
     estimated scf accuracy    <       0.00031158 Ry

     iteration #  3     ecut=    35.00 Ry     beta= 0.40
     Davidson diagonalization with overlap
     ethr =  9.51E-07,  avg # of iterations =  2.0

     negative rho (up, down):  1.830E-04 0.000E+00

     total cpu time spent up to now is        5.0 secs

     total energy              =    -107.08737971 Ry
     Harris-Foulkes estimate   =    -107.08739537 Ry
     estimated scf accuracy    <       0.00006806 Ry

     iteration #  4     ecut=    35.00 Ry     beta= 0.40
     Davidson diagonalization with overlap
     ethr =  4.25E-07,  avg # of iterations =  1.6

     negative rho (up, down):  1.828E-04 0.000E+00

     total cpu time spent up to now is        5.1 secs

     total energy              =    -107.08738079 Ry
     Harris-Foulkes estimate   =    -107.08738447 Ry
     estimated scf accuracy    <       0.00001642 Ry

     iteration #  5     ecut=    35.00 Ry     beta= 0.40
     Davidson diagonalization with overlap
     ethr =  1.03E-07,  avg # of iterations =  2.3

     negative rho (up, down):  1.827E-04 0.000E+00

     total cpu time spent up to now is        5.3 secs

     total energy              =    -107.08738080 Ry
     Harris-Foulkes estimate   =    -107.08738222 Ry
     estimated scf accuracy    <       0.00000396 Ry

     iteration #  6     ecut=    35.00 Ry     beta= 0.40
     Davidson diagonalization with overlap
     ethr =  2.48E-08,  avg # of iterations =  2.0

     negative rho (up, down):  1.828E-04 0.000E+00

     total cpu time spent up to now is        5.4 secs

     End of self-consistent calculation

          k = 0.0000 0.0000 0.0000 (   609 PWs)   bands (ev):

   -28.2873  -8.9612  -8.9612  -8.9612  -6.7364   8.9803   8.9803   8.9803
    14.5687  15.4421  15.4421  15.4421

     occupation numbers 
     1.0000   1.0000   1.0000   1.0000   1.0000   1.0000   1.0000   1.0000
     0.0000   0.0000   0.0000   0.0000

          k =-0.2498 0.2498-0.2498 (   589 PWs)   bands (ev):

   -28.2085  -9.9273  -8.9952  -8.9952  -5.7584   7.3317   8.2018   8.2018
    15.5331  16.5260  16.5260  16.7710

     occupation numbers 
     1.0000   1.0000   1.0000   1.0000   1.0000   1.0000   1.0000   1.0000
     0.0000   0.0000   0.0000   0.0000

          k = 0.4996-0.4996 0.4996 (   580 PWs)   bands (ev):

   -28.1281 -10.5791  -9.0285  -9.0285  -5.0853   6.1095   7.5759   7.5759
    16.5178  17.8859  17.8859  18.2621

     occupation numbers 
     1.0000   1.0000   1.0000   1.0000   1.0000   1.0000   1.0000   1.0000
     0.0000   0.0000   0.0000   0.0000

          k = 0.0000 0.4996 0.0000 (   592 PWs)   bands (ev):

   -28.1839  -9.7531  -9.1188  -9.1188  -5.9761   7.1468   8.6754   8.6754
    13.7419  16.4124  17.5390  17.5391

     occupation numbers 
     1.0000   1.0000   1.0000   1.0000   1.0000   1.0000   1.0000   1.0000
     0.0000   0.0000   0.0000   0.0000

          k = 0.7494-0.2498 0.7494 (   598 PWs)   bands (ev):

   -28.1052 -10.1184  -9.3196  -9.1540  -5.7246   7.1014   7.8128   8.0872
    14.5110  17.4407  18.4548  18.5940

     occupation numbers 
     1.0000   1.0000   1.0000   1.0000   1.0000   1.0000   1.0000   1.0000
     0.0000   0.0000   0.0000   0.0000

          k = 0.4996 0.0000 0.4996 (   590 PWs)   bands (ev):

   -28.1303 -10.1757  -9.3320  -9.0313  -5.4711   6.7251   7.6938   8.1105
    15.8112  16.8273  17.2560  18.0265

     occupation numbers 
     1.0000   1.0000   1.0000   1.0000   1.0000   1.0000   1.0000   1.0000
     0.0000   0.0000   0.0000   0.0000

          k = 0.0000-0.9992 0.0000 (   588 PWs)   bands (ev):

   -28.0820  -9.7963  -9.2755  -9.2755  -6.5193   7.7447   8.6358   8.6358
    12.5767  17.7950  18.4419  19.1948

     occupation numbers 
     1.0000   1.0000   1.0000   1.0000   1.0000   1.0000   1.0000   1.0000
     0.0000   0.0000   0.0000   0.0000

          k =-0.4996-0.9992 0.0000 (   604 PWs)   bands (ev):

   -28.0801  -9.6289  -9.5407  -9.5407  -5.8987   7.5354   7.9341   7.9341
    15.5999  15.5999  18.0796  19.2010

     occupation numbers 
     1.0000   1.0000   1.0000   1.0000   1.0000   1.0000   1.0000   1.0000
     0.0000   0.0000   0.0000   0.0000

     the Fermi energy is    10.4670 ev

!    total energy              =    -107.08738129 Ry
     Harris-Foulkes estimate   =    -107.08738136 Ry
     estimated scf accuracy    <       0.00000010 Ry

     The total energy is the sum of the following terms:

     one-electron contribution =     -21.61579379 Ry
     hartree contribution      =      19.55110888 Ry
     xc contribution           =     -19.19622982 Ry
     ewald contribution        =     -85.82646657 Ry
     smearing contrib. (-TS)   =      -0.00000000 Ry

     convergence has been achieved in   6 iterations

     negative rho (up, down):  1.828E-04 0.000E+00

     Forces acting on atoms (cartesian axes, Ry/au):

     atom    1 type  1   force =     0.00000000    0.00000000    0.00000000
     atom    2 type  2   force =     0.00000000    0.00000000    0.00000000
     The non-local contrib.  to forces
     atom    1 type  1   force =    -0.00000000   -0.00000000   -0.00000000
     atom    2 type  2   force =     0.00000000    0.00000000    0.00000000
     The ionic contribution  to forces
     atom    1 type  1   force =     0.00000000   -0.00000000   -0.00000000
     atom    2 type  2   force =    -0.00000000    0.00000000    0.00000000
     The local contribution  to forces
     atom    1 type  1   force =     0.00000000   -0.00000000    0.00000000
     atom    2 type  2   force =    -0.00000000    0.00000000    0.00000000
     The core correction contribution to forces
     atom    1 type  1   force =     0.00000000   -0.00000000    0.00000000
     atom    2 type  2   force =     0.00000000    0.00000000    0.00000000
     The Hubbard contrib.    to forces
     atom    1 type  1   force =     0.00000000    0.00000000    0.00000000
     atom    2 type  2   force =     0.00000000    0.00000000    0.00000000
     The SCF correction term to forces
     atom    1 type  1   force =    -0.00000000    0.00000000    0.00000000
     atom    2 type  2   force =    -0.00000000   -0.00000000   -0.00000000

     Total force =     0.000000     Total SCF correction =     0.000000


     Computing stress (Cartesian axis) and pressure


     negative rho (up, down):  1.828E-04 0.000E+00
          total   stress  (Ry/bohr**3)                   (kbar)     P=  151.59
   0.00103046  -0.00000000  -0.00000000        151.59     -0.00     -0.00
  -0.00000000   0.00103046   0.00000000         -0.00    151.59      0.00
  -0.00000000   0.00000000   0.00103046         -0.00      0.00    151.59

     kinetic stress (kbar)  15497.98      0.00      0.00
                                0.00  15497.98      0.00
                                0.00      0.00  15497.98

     local   stress (kbar)  -4145.56     -0.00      0.00
                               -0.00  -4145.56      0.00
                                0.00      0.00  -4145.56

     nonloc. stress (kbar)  13134.15     -0.00     -0.00
                               -0.00  13134.15      0.00
                               -0.00      0.00  13134.15

     hartree stress (kbar)   5648.76      0.00      0.00
                                0.00   5648.76      0.00
                                0.00      0.00   5648.76

     exc-cor stress (kbar)  -3726.92      0.00     -0.00
                                0.00  -3726.92      0.00
                               -0.00      0.00  -3726.92

     corecor stress (kbar)  -1459.59      0.00      0.00
                                0.00  -1459.59     -0.00
                                0.00     -0.00  -1459.59

     ewald   stress (kbar) -24797.22     -0.00     -0.00
                               -0.00 -24797.22     -0.00
                               -0.00     -0.00 -24797.22

     hubbard stress (kbar)      0.00      0.00      0.00
                                0.00      0.00      0.00
                                0.00      0.00      0.00

     london  stress (kbar)      0.00      0.00      0.00
                                0.00      0.00      0.00
                                0.00      0.00      0.00

     DFT-D3  stress (kbar)      0.00      0.00      0.00
                                0.00      0.00      0.00
                                0.00      0.00      0.00

     XDM     stress (kbar)      0.00      0.00      0.00
                                0.00      0.00      0.00
                                0.00      0.00      0.00

     dft-nl  stress (kbar)      0.00      0.00      0.00
                                0.00      0.00      0.00
                                0.00      0.00      0.00

     TS-vdW  stress (kbar)      0.00      0.00      0.00
                                0.00      0.00      0.00
                                0.00      0.00      0.00



     number of scf cycles    =   2
     number of bfgs steps    =   1

     enthalpy old            =    -106.9143176817 Ry
     enthalpy new            =    -106.9143246892 Ry

     CASE: enthalpy_new < enthalpy_old

     new trust radius        =       0.0010761837 bohr
     new conv_thr            =       0.0000000100 Ry

     new unit-cell volume =    169.92706 a.u.^3 (    25.18059 Ang^3 )
     density =      3.69803 g/cm^3

CELL_PARAMETERS (alat=  8.78193528)
  -0.500595892   0.000000000   0.500595892
  -0.000000000   0.500595892   0.500595892
  -0.500595892   0.500595892   0.000000000

ATOMIC_POSITIONS (crystal)
Ca       0.000000000   0.000000000   0.000000000
O        0.500000000   0.500000000   0.500000000



     Writing output data file CaO.save/
     NEW-OLD atomic charge density approx. for the potential

     Check: negative core charge=   -0.000004

     negative rho (up, down):  1.832E-04 0.000E+00
     extrapolated charge   16.01980, renormalised to   16.00000

     total cpu time spent up to now is        6.1 secs

     Self-consistent Calculation

     iteration #  1     ecut=    35.00 Ry     beta= 0.40
     Davidson diagonalization with overlap
     ethr =  1.00E-06,  avg # of iterations =  2.0

     negative rho (up, down):  1.832E-04 0.000E+00

     total cpu time spent up to now is        6.3 secs

     total energy              =    -107.08753646 Ry
     Harris-Foulkes estimate   =    -107.06791252 Ry
     estimated scf accuracy    <       0.00005666 Ry

     iteration #  2     ecut=    35.00 Ry     beta= 0.40
     Davidson diagonalization with overlap
     ethr =  3.54E-07,  avg # of iterations =  3.1

     negative rho (up, down):  1.832E-04 0.000E+00

     total cpu time spent up to now is        6.5 secs

     total energy              =    -107.08759348 Ry
     Harris-Foulkes estimate   =    -107.08761944 Ry
     estimated scf accuracy    <       0.00009906 Ry

     iteration #  3     ecut=    35.00 Ry     beta= 0.40
     Davidson diagonalization with overlap
     ethr =  3.54E-07,  avg # of iterations =  2.0

     negative rho (up, down):  1.832E-04 0.000E+00

     total cpu time spent up to now is        6.6 secs

     total energy              =    -107.08759471 Ry
     Harris-Foulkes estimate   =    -107.08759908 Ry
     estimated scf accuracy    <       0.00001976 Ry

     iteration #  4     ecut=    35.00 Ry     beta= 0.40
     Davidson diagonalization with overlap
     ethr =  1.24E-07,  avg # of iterations =  1.9

     negative rho (up, down):  1.831E-04 0.000E+00

     total cpu time spent up to now is        6.7 secs

     total energy              =    -107.08759549 Ry
     Harris-Foulkes estimate   =    -107.08759629 Ry
     estimated scf accuracy    <       0.00000497 Ry

     iteration #  5     ecut=    35.00 Ry     beta= 0.40
     Davidson diagonalization with overlap
     ethr =  3.11E-08,  avg # of iterations =  1.9

     negative rho (up, down):  1.830E-04 0.000E+00

     total cpu time spent up to now is        6.8 secs

     total energy              =    -107.08759537 Ry
     Harris-Foulkes estimate   =    -107.08759586 Ry
     estimated scf accuracy    <       0.00000175 Ry

     iteration #  6     ecut=    35.00 Ry     beta= 0.40
     Davidson diagonalization with overlap
     ethr =  1.09E-08,  avg # of iterations =  1.6

     negative rho (up, down):  1.830E-04 0.000E+00

     total cpu time spent up to now is        6.9 secs

     total energy              =    -107.08759529 Ry
     Harris-Foulkes estimate   =    -107.08759549 Ry
     estimated scf accuracy    <       0.00000033 Ry

     iteration #  7     ecut=    35.00 Ry     beta= 0.40
     Davidson diagonalization with overlap
     ethr =  2.04E-09,  avg # of iterations =  3.3

     negative rho (up, down):  1.830E-04 0.000E+00

     total cpu time spent up to now is        7.1 secs

     total energy              =    -107.08759533 Ry
     Harris-Foulkes estimate   =    -107.08759574 Ry
     estimated scf accuracy    <       0.00000109 Ry

     iteration #  8     ecut=    35.00 Ry     beta= 0.40
     Davidson diagonalization with overlap
     ethr =  2.04E-09,  avg # of iterations =  2.9

     negative rho (up, down):  1.830E-04 0.000E+00

     total cpu time spent up to now is        7.2 secs

     total energy              =    -107.08759544 Ry
     Harris-Foulkes estimate   =    -107.08759545 Ry
     estimated scf accuracy    <       0.00000004 Ry

     iteration #  9     ecut=    35.00 Ry     beta= 0.40
     Davidson diagonalization with overlap
     ethr =  2.68E-10,  avg # of iterations =  1.1

     negative rho (up, down):  1.830E-04 0.000E+00

     total cpu time spent up to now is        7.4 secs

     total energy              =    -107.08759544 Ry
     Harris-Foulkes estimate   =    -107.08759544 Ry
     estimated scf accuracy    <       0.00000002 Ry

     iteration # 10     ecut=    35.00 Ry     beta= 0.40
     Davidson diagonalization with overlap
     ethr =  1.23E-10,  avg # of iterations =  2.6

     negative rho (up, down):  1.830E-04 0.000E+00

     total cpu time spent up to now is        7.5 secs

     End of self-consistent calculation

          k = 0.0000 0.0000 0.0000 (   609 PWs)   bands (ev):

   -28.3071  -8.9824  -8.9824  -8.9824  -6.7483   8.9661   8.9661   8.9661
    14.5426  15.4242  15.4242  15.4242

     occupation numbers 
     1.0000   1.0000   1.0000   1.0000   1.0000   1.0000   1.0000   1.0000
     0.0000   0.0000   0.0000   0.0000

          k =-0.2497 0.2497-0.2497 (   589 PWs)   bands (ev):

   -28.2287  -9.9433  -9.0163  -9.0163  -5.7750   7.3188   8.1891   8.1891
    15.5145  16.5064  16.5064  16.7443

     occupation numbers 
     1.0000   1.0000   1.0000   1.0000   1.0000   1.0000   1.0000   1.0000
     0.0000   0.0000   0.0000   0.0000

          k = 0.4994-0.4994 0.4994 (   580 PWs)   bands (ev):

   -28.1488 -10.5928  -9.0495  -9.0495  -5.1038   6.0981   7.5643   7.5643
    16.4971  17.8638  17.8638  18.2372

     occupation numbers 
     1.0000   1.0000   1.0000   1.0000   1.0000   1.0000   1.0000   1.0000
     0.0000   0.0000   0.0000   0.0000

          k = 0.0000 0.4994 0.0000 (   592 PWs)   bands (ev):

   -28.2043  -9.7699  -9.1394  -9.1394  -5.9914   7.1344   8.6612   8.6612
    13.7264  16.3870  17.5177  17.5177

     occupation numbers 
     1.0000   1.0000   1.0000   1.0000   1.0000   1.0000   1.0000   1.0000
     0.0000   0.0000   0.0000   0.0000

          k = 0.7491-0.2497 0.7491 (   598 PWs)   bands (ev):

   -28.1260 -10.1339  -9.3392  -9.1745  -5.7403   7.0880   7.7994   8.0741
    14.4939  17.4183  18.4320  18.5688

     occupation numbers 
     1.0000   1.0000   1.0000   1.0000   1.0000   1.0000   1.0000   1.0000
     0.0000   0.0000   0.0000   0.0000

          k = 0.4994 0.0000 0.4994 (   590 PWs)   bands (ev):

   -28.1510 -10.1907  -9.3516  -9.0523  -5.4883   6.7131   7.6820   8.0964
    15.7922  16.8052  17.2355  18.0029

     occupation numbers 
     1.0000   1.0000   1.0000   1.0000   1.0000   1.0000   1.0000   1.0000
     0.0000   0.0000   0.0000   0.0000

          k = 0.0000-0.9988 0.0000 (   588 PWs)   bands (ev):

   -28.1029  -9.8140  -9.2953  -9.2953  -6.5306   7.7291   8.6210   8.6210
    12.5626  17.7700  18.4195  19.1709

     occupation numbers 
     1.0000   1.0000   1.0000   1.0000   1.0000   1.0000   1.0000   1.0000
     0.0000   0.0000   0.0000   0.0000

          k =-0.4994-0.9988-0.0000 (   604 PWs)   bands (ev):

   -28.1011  -9.6462  -9.5594  -9.5594  -5.9138   7.5232   7.9193   7.9193
    15.5813  15.5813  18.0553  19.1770

     occupation numbers 
     1.0000   1.0000   1.0000   1.0000   1.0000   1.0000   1.0000   1.0000
     0.0000   0.0000   0.0000   0.0000

     the Fermi energy is    10.4438 ev

!    total energy              =    -107.08759544 Ry
     Harris-Foulkes estimate   =    -107.08759544 Ry
     estimated scf accuracy    <          3.9E-10 Ry

     The total energy is the sum of the following terms:

     one-electron contribution =     -21.66729368 Ry
     hartree contribution      =      19.56526981 Ry
     xc contribution           =     -19.19454029 Ry
     ewald contribution        =     -85.79103127 Ry
     smearing contrib. (-TS)   =      -0.00000000 Ry

     convergence has been achieved in  10 iterations

     negative rho (up, down):  1.830E-04 0.000E+00

     Forces acting on atoms (cartesian axes, Ry/au):

     atom    1 type  1   force =     0.00000000    0.00000000    0.00000000
     atom    2 type  2   force =     0.00000000    0.00000000    0.00000000
     The non-local contrib.  to forces
     atom    1 type  1   force =     0.00000000    0.00000000   -0.00000000
     atom    2 type  2   force =     0.00000000    0.00000000    0.00000000
     The ionic contribution  to forces
     atom    1 type  1   force =    -0.00000000    0.00000000    0.00000000
     atom    2 type  2   force =     0.00000000   -0.00000000   -0.00000000
     The local contribution  to forces
     atom    1 type  1   force =     0.00000000   -0.00000000   -0.00000000
     atom    2 type  2   force =     0.00000000   -0.00000000   -0.00000000
     The core correction contribution to forces
     atom    1 type  1   force =    -0.00000000    0.00000000   -0.00000000
     atom    2 type  2   force =     0.00000000    0.00000000    0.00000000
     The Hubbard contrib.    to forces
     atom    1 type  1   force =     0.00000000    0.00000000    0.00000000
     atom    2 type  2   force =     0.00000000    0.00000000    0.00000000
     The SCF correction term to forces
     atom    1 type  1   force =    -0.00000000    0.00000000    0.00000000
     atom    2 type  2   force =     0.00000000   -0.00000000    0.00000000

     Total force =     0.000000     Total SCF correction =     0.000000


     Computing stress (Cartesian axis) and pressure


     negative rho (up, down):  1.830E-04 0.000E+00
          total   stress  (Ry/bohr**3)                   (kbar)     P=  148.81
   0.00101158  -0.00000000  -0.00000000        148.81     -0.00     -0.00
  -0.00000000   0.00101158   0.00000000         -0.00    148.81      0.00
  -0.00000000   0.00000000   0.00101158         -0.00      0.00    148.81

     kinetic stress (kbar)  15476.30      0.00     -0.00
                                0.00  15476.30     -0.00
                                0.00     -0.00  15476.30

     local   stress (kbar)  -4154.37     -0.00      0.00
                               -0.00  -4154.37     -0.00
                                0.00     -0.00  -4154.37

     nonloc. stress (kbar)  13116.97     -0.00      0.00
                               -0.00  13116.97      0.00
                                0.00      0.00  13116.97

     hartree stress (kbar)   5645.85      0.00      0.00
                                0.00   5645.85     -0.00
                                0.00     -0.00   5645.85

     exc-cor stress (kbar)  -3721.87      0.00     -0.00
                                0.00  -3721.87      0.00
                               -0.00      0.00  -3721.87

     corecor stress (kbar)  -1457.77     -0.00      0.00
                               -0.00  -1457.77      0.00
                                0.00      0.00  -1457.77

     ewald   stress (kbar) -24756.30      0.00      0.00
                                0.00 -24756.30     -0.00
                                0.00     -0.00 -24756.30

     hubbard stress (kbar)      0.00      0.00      0.00
                                0.00      0.00      0.00
                                0.00      0.00      0.00

     london  stress (kbar)      0.00      0.00      0.00
                                0.00      0.00      0.00
                                0.00      0.00      0.00

     DFT-D3  stress (kbar)      0.00      0.00      0.00
                                0.00      0.00      0.00
                                0.00      0.00      0.00

     XDM     stress (kbar)      0.00      0.00      0.00
                                0.00      0.00      0.00
                                0.00      0.00      0.00

     dft-nl  stress (kbar)      0.00      0.00      0.00
                                0.00      0.00      0.00
                                0.00      0.00      0.00

     TS-vdW  stress (kbar)      0.00      0.00      0.00
                                0.00      0.00      0.00
                                0.00      0.00      0.00



     number of scf cycles    =   3
     number of bfgs steps    =   2

     enthalpy old            =    -106.9143246892 Ry
     enthalpy new            =    -106.9143243128 Ry

     CASE: enthalpy_new > enthalpy_old

     new trust radius        =       0.0004615733 bohr
     new conv_thr            =       0.0000000100 Ry

     new unit-cell volume =    169.80687 a.u.^3 (    25.16278 Ang^3 )
     density =      3.70065 g/cm^3

CELL_PARAMETERS (alat=  8.78193528)
  -0.500477837   0.000000000   0.500477837
  -0.000000000   0.500477837   0.500477837
  -0.500477837   0.500477837  -0.000000000

ATOMIC_POSITIONS (crystal)
Ca       0.000000000   0.000000000   0.000000000
O        0.500000000   0.500000000   0.500000000



     Writing output data file CaO.save/
     NEW-OLD atomic charge density approx. for the potential

     Check: negative core charge=   -0.000004

     negative rho (up, down):  1.828E-04 0.000E+00
     extrapolated charge   15.98868, renormalised to   16.00000

     total cpu time spent up to now is        8.2 secs

     Self-consistent Calculation

     iteration #  1     ecut=    35.00 Ry     beta= 0.40
     Davidson diagonalization with overlap
     ethr =  1.00E-06,  avg # of iterations =  2.0

     Threshold (ethr) on eigenvalues was too large:
     Diagonalizing with lowered threshold

     Davidson diagonalization with overlap
     ethr =  9.08E-08,  avg # of iterations =  1.0

     negative rho (up, down):  1.828E-04 0.000E+00

     total cpu time spent up to now is        8.5 secs

     total energy              =    -107.08745655 Ry
     Harris-Foulkes estimate   =    -107.09871730 Ry
     estimated scf accuracy    <       0.00001461 Ry

     iteration #  2     ecut=    35.00 Ry     beta= 0.40
     Davidson diagonalization with overlap
     ethr =  9.13E-08,  avg # of iterations =  3.4

     negative rho (up, down):  1.828E-04 0.000E+00

     total cpu time spent up to now is        8.6 secs

     total energy              =    -107.08747323 Ry
     Harris-Foulkes estimate   =    -107.08748059 Ry
     estimated scf accuracy    <       0.00002921 Ry

     iteration #  3     ecut=    35.00 Ry     beta= 0.40
     Davidson diagonalization with overlap
     ethr =  9.13E-08,  avg # of iterations =  2.0

     negative rho (up, down):  1.828E-04 0.000E+00

     total cpu time spent up to now is        8.7 secs

     total energy              =    -107.08747325 Ry
     Harris-Foulkes estimate   =    -107.08747474 Ry
     estimated scf accuracy    <       0.00000644 Ry

     iteration #  4     ecut=    35.00 Ry     beta= 0.40
     Davidson diagonalization with overlap
     ethr =  4.02E-08,  avg # of iterations =  1.6

     negative rho (up, down):  1.829E-04 0.000E+00

     total cpu time spent up to now is        8.9 secs

     total energy              =    -107.08747353 Ry
     Harris-Foulkes estimate   =    -107.08747375 Ry
     estimated scf accuracy    <       0.00000149 Ry

     iteration #  5     ecut=    35.00 Ry     beta= 0.40
     Davidson diagonalization with overlap
     ethr =  9.32E-09,  avg # of iterations =  2.0

     negative rho (up, down):  1.829E-04 0.000E+00

     total cpu time spent up to now is        9.0 secs

     total energy              =    -107.08747346 Ry
     Harris-Foulkes estimate   =    -107.08747364 Ry
     estimated scf accuracy    <       0.00000061 Ry

     iteration #  6     ecut=    35.00 Ry     beta= 0.40
     Davidson diagonalization with overlap
     ethr =  3.79E-09,  avg # of iterations =  1.5

     negative rho (up, down):  1.829E-04 0.000E+00

     total cpu time spent up to now is        9.1 secs

     total energy              =    -107.08747344 Ry
     Harris-Foulkes estimate   =    -107.08747351 Ry
     estimated scf accuracy    <       0.00000010 Ry

     iteration #  7     ecut=    35.00 Ry     beta= 0.40
     Davidson diagonalization with overlap
     ethr =  6.56E-10,  avg # of iterations =  3.3

     negative rho (up, down):  1.829E-04 0.000E+00

     total cpu time spent up to now is        9.2 secs

     total energy              =    -107.08747345 Ry
     Harris-Foulkes estimate   =    -107.08747358 Ry
     estimated scf accuracy    <       0.00000034 Ry

     iteration #  8     ecut=    35.00 Ry     beta= 0.40
     Davidson diagonalization with overlap
     ethr =  6.56E-10,  avg # of iterations =  2.9

     negative rho (up, down):  1.829E-04 0.000E+00

     total cpu time spent up to now is        9.4 secs

     End of self-consistent calculation

          k = 0.0000 0.0000 0.0000 (   609 PWs)   bands (ev):

   -28.2956  -8.9701  -8.9701  -8.9701  -6.7410   8.9747   8.9747   8.9747
    14.5579  15.4346  15.4346  15.4346

     occupation numbers 
     1.0000   1.0000   1.0000   1.0000   1.0000   1.0000   1.0000   1.0000
     0.0000   0.0000   0.0000   0.0000

          k =-0.2498 0.2498-0.2498 (   589 PWs)   bands (ev):

   -28.2170  -9.9339  -9.0040  -9.0040  -5.7651   7.3266   8.1968   8.1968
    15.5254  16.5178  16.5178  16.7600

     occupation numbers 
     1.0000   1.0000   1.0000   1.0000   1.0000   1.0000   1.0000   1.0000
     0.0000   0.0000   0.0000   0.0000

          k = 0.4995-0.4995 0.4995 (   580 PWs)   bands (ev):

   -28.1368 -10.5848  -9.0373  -9.0373  -5.0927   6.1050   7.5713   7.5713
    16.5093  17.8766  17.8766  18.2517

     occupation numbers 
     1.0000   1.0000   1.0000   1.0000   1.0000   1.0000   1.0000   1.0000
     0.0000   0.0000   0.0000   0.0000

          k = 0.0000 0.4995 0.0000 (   592 PWs)   bands (ev):

   -28.1924  -9.7601  -9.1274  -9.1274  -5.9822   7.1419   8.6698   8.6698
    13.7355  16.4018  17.5300  17.5301

     occupation numbers 
     1.0000   1.0000   1.0000   1.0000   1.0000   1.0000   1.0000   1.0000
     0.0000   0.0000   0.0000   0.0000

          k = 0.7493-0.2498 0.7493 (   598 PWs)   bands (ev):

   -28.1139 -10.1248  -9.3278  -9.1626  -5.7308   7.0961   7.8075   8.0821
    14.5039  17.4314  18.4452  18.5834

     occupation numbers 
     1.0000   1.0000   1.0000   1.0000   1.0000   1.0000   1.0000   1.0000
     0.0000   0.0000   0.0000   0.0000

          k = 0.4995 0.0000 0.4995 (   590 PWs)   bands (ev):

   -28.1389 -10.1819  -9.3402  -9.0401  -5.4780   6.7203   7.6892   8.1049
    15.8034  16.8181  17.2474  18.0166

     occupation numbers 
     1.0000   1.0000   1.0000   1.0000   1.0000   1.0000   1.0000   1.0000
     0.0000   0.0000   0.0000   0.0000

          k = 0.0000-0.9990 0.0000 (   588 PWs)   bands (ev):

   -28.0907  -9.8037  -9.2838  -9.2838  -6.5236   7.7385   8.6299   8.6299
    12.5708  17.7845  18.4324  19.1847

     occupation numbers 
     1.0000   1.0000   1.0000   1.0000   1.0000   1.0000   1.0000   1.0000
     0.0000   0.0000   0.0000   0.0000

          k =-0.4995-0.9990-0.0000 (   604 PWs)   bands (ev):

   -28.0889  -9.6361  -9.5485  -9.5485  -5.9047   7.5306   7.9282   7.9282
    15.5922  15.5922  18.0694  19.1909

     occupation numbers 
     1.0000   1.0000   1.0000   1.0000   1.0000   1.0000   1.0000   1.0000
     0.0000   0.0000   0.0000   0.0000

     the Fermi energy is    10.4573 ev

!    total energy              =    -107.08747349 Ry
     Harris-Foulkes estimate   =    -107.08747349 Ry
     estimated scf accuracy    <          4.2E-09 Ry

     The total energy is the sum of the following terms:

     one-electron contribution =     -21.63759115 Ry
     hartree contribution      =      19.55678309 Ry
     xc contribution           =     -19.19539744 Ry
     ewald contribution        =     -85.81126799 Ry
     smearing contrib. (-TS)   =      -0.00000000 Ry

     convergence has been achieved in   8 iterations

     negative rho (up, down):  1.829E-04 0.000E+00

     Forces acting on atoms (cartesian axes, Ry/au):

     atom    1 type  1   force =     0.00000000    0.00000000    0.00000000
     atom    2 type  2   force =     0.00000000    0.00000000   -0.00000000
     The non-local contrib.  to forces
     atom    1 type  1   force =     0.00000000    0.00000000    0.00000000
     atom    2 type  2   force =     0.00000000    0.00000000    0.00000000
     The ionic contribution  to forces
     atom    1 type  1   force =     0.00000000   -0.00000000   -0.00000000
     atom    2 type  2   force =    -0.00000000    0.00000000    0.00000000
     The local contribution  to forces
     atom    1 type  1   force =     0.00000000   -0.00000000    0.00000000
     atom    2 type  2   force =     0.00000000   -0.00000000   -0.00000000
     The core correction contribution to forces
     atom    1 type  1   force =     0.00000000    0.00000000    0.00000000
     atom    2 type  2   force =     0.00000000    0.00000000    0.00000000
     The Hubbard contrib.    to forces
     atom    1 type  1   force =     0.00000000    0.00000000    0.00000000
     atom    2 type  2   force =     0.00000000    0.00000000    0.00000000
     The SCF correction term to forces
     atom    1 type  1   force =    -0.00000000   -0.00000000   -0.00000000
     atom    2 type  2   force =     0.00000000   -0.00000000    0.00000000

     Total force =     0.000000     Total SCF correction =     0.000000


     Computing stress (Cartesian axis) and pressure


     negative rho (up, down):  1.829E-04 0.000E+00
          total   stress  (Ry/bohr**3)                   (kbar)     P=  149.94
   0.00101926   0.00000000   0.00000000        149.94      0.00      0.00
   0.00000000   0.00101926  -0.00000000          0.00    149.94     -0.00
   0.00000000  -0.00000000   0.00101926          0.00     -0.00    149.94

     kinetic stress (kbar)  15488.50     -0.00      0.00
                               -0.00  15488.50     -0.00
                                0.00     -0.00  15488.50

     local   stress (kbar)  -4149.21      0.00     -0.00
                                0.00  -4149.21     -0.00
                               -0.00     -0.00  -4149.21

     nonloc. stress (kbar)  13126.45     -0.00      0.00
                               -0.00  13126.45      0.00
                                0.00      0.00  13126.45

     hartree stress (kbar)   5647.40     -0.00     -0.00
                               -0.00   5647.40      0.00
                               -0.00      0.00   5647.40

     exc-cor stress (kbar)  -3724.73      0.00     -0.00
                                0.00  -3724.73      0.00
                               -0.00      0.00  -3724.73

     corecor stress (kbar)  -1458.81      0.00      0.00
                                0.00  -1458.81      0.00
                                0.00      0.00  -1458.81

     ewald   stress (kbar) -24779.66      0.00      0.00
                                0.00 -24779.66      0.00
                                0.00      0.00 -24779.66

     hubbard stress (kbar)      0.00      0.00      0.00
                                0.00      0.00      0.00
                                0.00      0.00      0.00

     london  stress (kbar)      0.00      0.00      0.00
                                0.00      0.00      0.00
                                0.00      0.00      0.00

     DFT-D3  stress (kbar)      0.00      0.00      0.00
                                0.00      0.00      0.00
                                0.00      0.00      0.00

     XDM     stress (kbar)      0.00      0.00      0.00
                                0.00      0.00      0.00
                                0.00      0.00      0.00

     dft-nl  stress (kbar)      0.00      0.00      0.00
                                0.00      0.00      0.00
                                0.00      0.00      0.00

     TS-vdW  stress (kbar)      0.00      0.00      0.00
                                0.00      0.00      0.00
                                0.00      0.00      0.00



     bfgs converged in   4 scf cycles and   2 bfgs steps
     (criteria: energy <  1.0E-04 Ry, force <  1.0E-03Ry/Bohr, cell <  5.0E-01kbar)

     End of BFGS Geometry Optimization

     Final enthalpy =    -106.9143249169 Ry
Begin final coordinates
     new unit-cell volume =    169.80687 a.u.^3 (    25.16278 Ang^3 )
     density =      3.70065 g/cm^3

CELL_PARAMETERS (alat=  8.78193528)
  -0.500477837   0.000000000   0.500477837
  -0.000000000   0.500477837   0.500477837
  -0.500477837   0.500477837  -0.000000000

ATOMIC_POSITIONS (crystal)
Ca       0.000000000   0.000000000   0.000000000
O        0.500000000   0.500000000   0.500000000
End final coordinates



     Writing output data file CaO.save/

     A final scf calculation at the relaxed structure.
     The G-vectors are recalculated for the final unit cell
     Results may differ from those at the preceding step.
 
     Parallelization info
     --------------------
     sticks:   dense  smooth     PW     G-vecs:    dense   smooth      PW
     Min         105      45     15                 2016      585     111
     Max         106      46     16                 2019      587     114
     Sum         847     367    121                16145     4693     893
 


     bravais-lattice index     =            2
     lattice parameter (alat)  =       8.7819  a.u.
     unit-cell volume          =     169.8069 (a.u.)^3
     number of atoms/cell      =            2
     number of atomic types    =            2
     number of electrons       =        16.00
     number of Kohn-Sham states=           12
     kinetic-energy cutoff     =      35.0000  Ry
     charge density cutoff     =     315.0000  Ry
     convergence threshold     =      1.0E-08
     mixing beta               =       0.4000
     number of iterations used =            8  plain     mixing
     Exchange-correlation      = SLA PW PBE PBE ( 1  4  3  4 0 0)

     celldm(1)=   8.781935  celldm(2)=   0.000000  celldm(3)=   0.000000
     celldm(4)=   0.000000  celldm(5)=   0.000000  celldm(6)=   0.000000

     crystal axes: (cart. coord. in units of alat)
               a(1) = (  -0.500478   0.000000   0.500478 )  
               a(2) = (  -0.000000   0.500478   0.500478 )  
               a(3) = (  -0.500478   0.500478  -0.000000 )  

     reciprocal axes: (cart. coord. in units 2 pi/alat)
               b(1) = ( -0.999045 -0.999045  0.999045 )  
               b(2) = (  0.999045  0.999045  0.999045 )  
               b(3) = ( -0.999045  0.999045 -0.999045 )  


     PseudoPot. # 1 for Ca read from file:
     ../pseudo/Ca.pbe-nsp-van.UPF
     MD5 check sum: cdab9c70410076c6adf7f3c9fd3601e0
     Pseudo is Ultrasoft + core correction, Zval = 10.0
     Generated by new atomic code, or converted to UPF format
     Using radial grid of  845 points,  6 beta functions with: 
                l(1) =   0
                l(2) =   0
                l(3) =   1
                l(4) =   1
                l(5) =   2
                l(6) =   2
     Q(r) pseudized with  6 coefficients,  rinner =    1.200   1.200   1.200
                                                       1.200   1.200

     PseudoPot. # 2 for O  read from file:
     ../pseudo/O.pbe-van_ak.UPF
     MD5 check sum: 572909515f9aa9498032b6eb5528d5f9
     Pseudo is Ultrasoft, Zval =  6.0
     Generated by new atomic code, or converted to UPF format
     Using radial grid of  737 points,  4 beta functions with: 
                l(1) =   0
                l(2) =   0
                l(3) =   1
                l(4) =   1
     Q(r) pseudized with  8 coefficients,  rinner =    0.800   0.800   0.800


     atomic species   valence    mass     pseudopotential
        Ca            10.00    40.07800     Ca( 1.00)
        O              6.00    15.99940     O ( 1.00)

     48 Sym. Ops., with inversion, found


                                    s                        frac. trans.

      isym =  1     identity                                     

 cryst.   s( 1) = (     1          0          0      )
                  (     0          1          0      )
                  (     0          0          1      )

 cart.    s( 1) = (  1.0000000  0.0000000  0.0000000 )
                  (  0.0000000  1.0000000  0.0000000 )
                  (  0.0000000  0.0000000  1.0000000 )


      isym =  2     180 deg rotation - cart. axis [0,0,1]        

 cryst.   s( 2) = (     0          1         -1      )
                  (     1          0         -1      )
                  (     0          0         -1      )

 cart.    s( 2) = ( -1.0000000  0.0000000  0.0000000 )
                  (  0.0000000 -1.0000000  0.0000000 )
                  (  0.0000000  0.0000000  1.0000000 )


      isym =  3     180 deg rotation - cart. axis [0,1,0]        

 cryst.   s( 3) = (    -1          0          0      )
                  (    -1          0          1      )
                  (    -1          1          0      )

 cart.    s( 3) = ( -1.0000000  0.0000000  0.0000000 )
                  (  0.0000000  1.0000000  0.0000000 )
                  (  0.0000000  0.0000000 -1.0000000 )


      isym =  4     180 deg rotation - cart. axis [1,0,0]        

 cryst.   s( 4) = (     0         -1          1      )
                  (     0         -1          0      )
                  (     1         -1          0      )

 cart.    s( 4) = (  1.0000000  0.0000000  0.0000000 )
                  (  0.0000000 -1.0000000  0.0000000 )
                  (  0.0000000  0.0000000 -1.0000000 )


      isym =  5     180 deg rotation - cart. axis [1,1,0]        

 cryst.   s( 5) = (     0         -1          0      )
                  (    -1          0          0      )
                  (     0          0         -1      )

 cart.    s( 5) = (  0.0000000  1.0000000  0.0000000 )
                  (  1.0000000  0.0000000  0.0000000 )
                  (  0.0000000  0.0000000 -1.0000000 )


      isym =  6     180 deg rotation - cart. axis [1,-1,0]       

 cryst.   s( 6) = (    -1          0          1      )
                  (     0         -1          1      )
                  (     0          0          1      )

[...]
                  (     0          1         -1      )
                  (     0          1          0      )

 cart.    s(48) = (  0.0000000  0.0000000  1.0000000 )
                  ( -1.0000000  0.0000000  0.0000000 )
                  (  0.0000000  1.0000000  0.0000000 )


     point group O_h (m-3m) 
     there are 10 classes
     the character table:

       E     8C3   3C2   6C4   6C2'  i     8S6   3s_h  6S4   6s_d 
A_1g   1.00  1.00  1.00  1.00  1.00  1.00  1.00  1.00  1.00  1.00
A_2g   1.00  1.00  1.00 -1.00 -1.00  1.00  1.00  1.00 -1.00 -1.00
E_g    2.00 -1.00  2.00  0.00  0.00  2.00 -1.00  2.00  0.00  0.00
T_1g   3.00  0.00 -1.00  1.00 -1.00  3.00  0.00 -1.00  1.00 -1.00
T_2g   3.00  0.00 -1.00 -1.00  1.00  3.00  0.00 -1.00 -1.00  1.00
A_1u   1.00  1.00  1.00  1.00  1.00 -1.00 -1.00 -1.00 -1.00 -1.00
A_2u   1.00  1.00  1.00 -1.00 -1.00 -1.00 -1.00 -1.00  1.00  1.00
E_u    2.00 -1.00  2.00  0.00  0.00 -2.00  1.00 -2.00  0.00  0.00
T_1u   3.00  0.00 -1.00  1.00 -1.00 -3.00  0.00  1.00 -1.00  1.00
T_2u   3.00  0.00 -1.00 -1.00  1.00 -3.00  0.00  1.00  1.00 -1.00

     the symmetry operations in each class and the name of the first element:

     E        1
          identity                                               
     8C3     17   19   20   18   24   21   22   23
          120 deg rotation - cart. axis [-1,-1,-1]               
     3C2      2    4    3
          180 deg rotation - cart. axis [0,0,1]                  
     6C4      7    8   15   16   12   11
           90 deg rotation - cart. axis [0,0,-1]                 
     6C2'     5    6   14   13   10    9
          180 deg rotation - cart. axis [1,1,0]                  
     i       25
          inversion                                              
     8S6     41   43   44   42   48   45   46   47
          inv. 120 deg rotation - cart. axis [-1,-1,-1]          
     3s_h    26   28   27
          inv. 180 deg rotation - cart. axis [0,0,1]             
     6S4     31   32   39   40   36   35
          inv.  90 deg rotation - cart. axis [0,0,-1]            
     6s_d    29   30   38   37   34   33
          inv. 180 deg rotation - cart. axis [1,1,0]             

   Cartesian axes

     site n.     atom                  positions (alat units)
         1           Ca  tau(   1) = (  -0.0000000   0.0000000   0.0000000  )
         2           O   tau(   2) = (  -0.5004778   0.5004778   0.5004778  )

   Crystallographic axes

     site n.     atom                  positions (cryst. coord.)
         1           Ca  tau(   1) = (  0.0000000  0.0000000  0.0000000  )
         2           O   tau(   2) = (  0.5000000  0.5000000  0.5000000  )

     number of k points=     8  gaussian smearing, width (Ry)=  0.0100
                       cart. coord. in units 2pi/alat
        k(    1) = (   0.0000000   0.0000000   0.0000000), wk =   0.0312500
        k(    2) = (  -0.2497613   0.2497613  -0.2497613), wk =   0.2500000
        k(    3) = (   0.4995226  -0.4995226   0.4995226), wk =   0.1250000
        k(    4) = (   0.0000000   0.4995226   0.0000000), wk =   0.1875000
        k(    5) = (   0.7492839  -0.2497613   0.7492839), wk =   0.7500000
        k(    6) = (   0.4995226   0.0000000   0.4995226), wk =   0.3750000
        k(    7) = (   0.0000000  -0.9990452   0.0000000), wk =   0.0937500
        k(    8) = (  -0.4995226  -0.9990452  -0.0000000), wk =   0.1875000

                       cryst. coord.
        k(    1) = (   0.0000000   0.0000000   0.0000000), wk =   0.0312500
        k(    2) = (   0.0000000   0.0000000   0.2500000), wk =   0.2500000
        k(    3) = (   0.0000000   0.0000000  -0.5000000), wk =   0.1250000
        k(    4) = (   0.0000000   0.2500000   0.2500000), wk =   0.1875000
        k(    5) = (   0.0000000   0.2500000  -0.5000000), wk =   0.7500000
        k(    6) = (   0.0000000   0.2500000  -0.2500000), wk =   0.3750000
        k(    7) = (  -0.0000000  -0.5000000  -0.5000000), wk =   0.0937500
        k(    8) = (   0.2500000  -0.5000000  -0.2500000), wk =   0.1875000

     Dense  grid:    16145 G-vectors     FFT dimensions: (  36,  36,  36)

     Smooth grid:     4693 G-vectors     FFT dimensions: (  24,  24,  24)

     Dynamical RAM for                 wfc:       0.01 MB

     Dynamical RAM for     wfc (w. buffer):       0.12 MB

     Dynamical RAM for           str. fact:       0.06 MB

     Dynamical RAM for           local pot:       0.03 MB

     Dynamical RAM for          nlocal pot:       0.03 MB

     Dynamical RAM for                qrad:       7.96 MB

     Dynamical RAM for          rho,v,vnew:       0.24 MB

     Dynamical RAM for               rhoin:       0.08 MB

     Dynamical RAM for            rho*nmix:       0.49 MB

     Dynamical RAM for           G-vectors:       0.12 MB

     Dynamical RAM for          h,s,v(r/c):       0.11 MB

     Dynamical RAM for          <psi|beta>:       0.00 MB

     Dynamical RAM for                 psi:       0.05 MB

     Dynamical RAM for                hpsi:       0.05 MB

     Dynamical RAM for                spsi:       0.05 MB

     Dynamical RAM for      wfcinit/wfcrot:       0.04 MB

     Dynamical RAM for           addusdens:       5.76 MB

     Dynamical RAM for          addusforce:       5.88 MB

     Dynamical RAM for         addusstress:       6.19 MB

     Estimated static dynamical RAM per process >       9.48 MB

     Estimated max dynamical RAM per process >      15.67 MB

     Estimated total dynamical RAM >     125.36 MB

     Check: negative core charge=   -0.000004

     Initial potential from superposition of free atoms

     starting charge   15.99454, renormalised to   16.00000

     negative rho (up, down):  1.858E-04 0.000E+00
     Starting wfcs are   14 randomized atomic wfcs

     total cpu time spent up to now is       10.2 secs

     Self-consistent Calculation

     iteration #  1     ecut=    35.00 Ry     beta= 0.40
     Davidson diagonalization with overlap
     ethr =  1.00E-06,  avg # of iterations =  7.8

     negative rho (up, down):  1.920E-04 0.000E+00

     total cpu time spent up to now is       10.5 secs

     total energy              =    -106.96082410 Ry
     Harris-Foulkes estimate   =    -107.20114320 Ry
     estimated scf accuracy    <       0.46205286 Ry

     iteration #  2     ecut=    35.00 Ry     beta= 0.40
     Davidson diagonalization with overlap
     ethr =  2.89E-03,  avg # of iterations =  2.8

     negative rho (up, down):  1.857E-04 0.000E+00

     total cpu time spent up to now is       10.6 secs

     total energy              =    -107.07297713 Ry
     Harris-Foulkes estimate   =    -107.09985275 Ry
     estimated scf accuracy    <       0.07225499 Ry

     iteration #  3     ecut=    35.00 Ry     beta= 0.40
     Davidson diagonalization with overlap
     ethr =  4.52E-04,  avg # of iterations =  2.8

     negative rho (up, down):  1.826E-04 0.000E+00

     total cpu time spent up to now is       10.7 secs

     total energy              =    -107.08692107 Ry
     Harris-Foulkes estimate   =    -107.08632239 Ry
     estimated scf accuracy    <       0.00585130 Ry

     iteration #  4     ecut=    35.00 Ry     beta= 0.40
     Davidson diagonalization with overlap
     ethr =  3.66E-05,  avg # of iterations =  2.6

     negative rho (up, down):  1.830E-04 0.000E+00

     total cpu time spent up to now is       10.9 secs

     total energy              =    -107.08746217 Ry
     Harris-Foulkes estimate   =    -107.08747692 Ry
     estimated scf accuracy    <       0.00005157 Ry

     iteration #  5     ecut=    35.00 Ry     beta= 0.40
     Davidson diagonalization with overlap
     ethr =  3.22E-07,  avg # of iterations =  3.3

     negative rho (up, down):  1.834E-04 0.000E+00

     total cpu time spent up to now is       11.0 secs

     total energy              =    -107.08750013 Ry
     Harris-Foulkes estimate   =    -107.08748821 Ry
     estimated scf accuracy    <       0.00000949 Ry

     iteration #  6     ecut=    35.00 Ry     beta= 0.40
     Davidson diagonalization with overlap
     ethr =  5.93E-08,  avg # of iterations =  2.9

     negative rho (up, down):  1.834E-04 0.000E+00

     total cpu time spent up to now is       11.2 secs

     total energy              =    -107.08750296 Ry
     Harris-Foulkes estimate   =    -107.08750428 Ry
     estimated scf accuracy    <       0.00000462 Ry

     iteration #  7     ecut=    35.00 Ry     beta= 0.40
     Davidson diagonalization with overlap
     ethr =  2.88E-08,  avg # of iterations =  2.4

     negative rho (up, down):  1.833E-04 0.000E+00

     total cpu time spent up to now is       11.3 secs

     total energy              =    -107.08750422 Ry
     Harris-Foulkes estimate   =    -107.08750398 Ry
     estimated scf accuracy    <       0.00000015 Ry

     iteration #  8     ecut=    35.00 Ry     beta= 0.40
     Davidson diagonalization with overlap
     ethr =  9.48E-10,  avg # of iterations =  2.5

     negative rho (up, down):  1.833E-04 0.000E+00

     total cpu time spent up to now is       11.5 secs

     total energy              =    -107.08750436 Ry
     Harris-Foulkes estimate   =    -107.08750428 Ry
     estimated scf accuracy    <       0.00000006 Ry

     iteration #  9     ecut=    35.00 Ry     beta= 0.40
     Davidson diagonalization with overlap
     ethr =  3.44E-10,  avg # of iterations =  2.0

     negative rho (up, down):  1.833E-04 0.000E+00

     total cpu time spent up to now is       11.6 secs

     End of self-consistent calculation

          k = 0.0000 0.0000 0.0000 (   609 PWs)   bands (ev):

   -28.2954  -8.9700  -8.9700  -8.9700  -6.7408   8.9750   8.9750   8.9750
    14.5579  15.4347  15.4347  15.4347

     occupation numbers 
     1.0000   1.0000   1.0000   1.0000   1.0000   1.0000   1.0000   1.0000
     0.0000   0.0000   0.0000   0.0000

          k =-0.2498 0.2498-0.2498 (   589 PWs)   bands (ev):

   -28.2168  -9.9338  -9.0039  -9.0039  -5.7648   7.3268   8.1970   8.1970
    15.5254  16.5178  16.5178  16.7600

     occupation numbers 
     1.0000   1.0000   1.0000   1.0000   1.0000   1.0000   1.0000   1.0000
     0.0000   0.0000   0.0000   0.0000

          k = 0.4995-0.4995 0.4995 (   580 PWs)   bands (ev):

   -28.1366 -10.5846  -9.0372  -9.0372  -5.0925   6.1051   7.5716   7.5716
    16.5094  17.8767  17.8767  18.2517

     occupation numbers 
     1.0000   1.0000   1.0000   1.0000   1.0000   1.0000   1.0000   1.0000
     0.0000   0.0000   0.0000   0.0000

          k = 0.0000 0.4995 0.0000 (   592 PWs)   bands (ev):

   -28.1923  -9.7600  -9.1273  -9.1273  -5.9819   7.1421   8.6700   8.6700
    13.7355  16.4019  17.5301  17.5301

     occupation numbers 
     1.0000   1.0000   1.0000   1.0000   1.0000   1.0000   1.0000   1.0000
     0.0000   0.0000   0.0000   0.0000

          k = 0.7493-0.2498 0.7493 (   598 PWs)   bands (ev):

   -28.1138 -10.1247  -9.3277  -9.1625  -5.7306   7.0962   7.8077   8.0823
    14.5039  17.4315  18.4453  18.5835

     occupation numbers 
     1.0000   1.0000   1.0000   1.0000   1.0000   1.0000   1.0000   1.0000
     0.0000   0.0000   0.0000   0.0000

          k = 0.4995 0.0000 0.4995 (   602 PWs)   bands (ev):

   -28.1388 -10.1818  -9.3402  -9.0401  -5.4778   6.7203   7.6892   8.1048
    15.8033  16.8180  17.2471  18.0165

     occupation numbers 
     1.0000   1.0000   1.0000   1.0000   1.0000   1.0000   1.0000   1.0000
     0.0000   0.0000   0.0000   0.0000

          k = 0.0000-0.9990 0.0000 (   588 PWs)   bands (ev):

   -28.0906  -9.8036  -9.2837  -9.2837  -6.5234   7.7387   8.6302   8.6302
    12.5708  17.7846  18.4325  19.1848

     occupation numbers 
     1.0000   1.0000   1.0000   1.0000   1.0000   1.0000   1.0000   1.0000
     0.0000   0.0000   0.0000   0.0000

          k =-0.4995-0.9990-0.0000 (   604 PWs)   bands (ev):

   -28.0888  -9.6360  -9.5484  -9.5484  -5.9044   7.5308   7.9284   7.9284
    15.5922  15.5922  18.0695  19.1910

     occupation numbers 
     1.0000   1.0000   1.0000   1.0000   1.0000   1.0000   1.0000   1.0000
     0.0000   0.0000   0.0000   0.0000

     the Fermi energy is    10.4574 ev

!    total energy              =    -107.08750442 Ry
     Harris-Foulkes estimate   =    -107.08750437 Ry
     estimated scf accuracy    <          3.8E-09 Ry

     The total energy is the sum of the following terms:

     one-electron contribution =     -21.63736366 Ry
     hartree contribution      =      19.55644242 Ry
     xc contribution           =     -19.19531519 Ry
     ewald contribution        =     -85.81126799 Ry
     smearing contrib. (-TS)   =      -0.00000000 Ry

     convergence has been achieved in   9 iterations

     negative rho (up, down):  1.833E-04 0.000E+00

     Forces acting on atoms (cartesian axes, Ry/au):

     atom    1 type  1   force =     0.00000000    0.00000000    0.00000000
     atom    2 type  2   force =     0.00000000    0.00000000    0.00000000
     The non-local contrib.  to forces
     atom    1 type  1   force =     0.00000000    0.00000000    0.00000000
     atom    2 type  2   force =     0.00000000    0.00000000    0.00000000
     The ionic contribution  to forces
     atom    1 type  1   force =     0.00000000   -0.00000000   -0.00000000
     atom    2 type  2   force =    -0.00000000    0.00000000    0.00000000
     The local contribution  to forces
     atom    1 type  1   force =     0.00000000   -0.00000000    0.00000000
     atom    2 type  2   force =    -0.00000000    0.00000000    0.00000000
     The core correction contribution to forces
     atom    1 type  1   force =    -0.00000000   -0.00000000    0.00000000
     atom    2 type  2   force =     0.00000000    0.00000000    0.00000000
     The Hubbard contrib.    to forces
     atom    1 type  1   force =     0.00000000    0.00000000    0.00000000
     atom    2 type  2   force =     0.00000000    0.00000000    0.00000000
     The SCF correction term to forces
     atom    1 type  1   force =     0.00000000   -0.00000000   -0.00000000
     atom    2 type  2   force =     0.00000000    0.00000000   -0.00000000

     Total force =     0.000000     Total SCF correction =     0.000000


     Computing stress (Cartesian axis) and pressure


     negative rho (up, down):  1.833E-04 0.000E+00
          total   stress  (Ry/bohr**3)                   (kbar)     P=  149.34
   0.00101516   0.00000000  -0.00000000        149.34      0.00     -0.00
   0.00000000   0.00101516   0.00000000          0.00    149.34      0.00
  -0.00000000   0.00000000   0.00101516         -0.00      0.00    149.34

     kinetic stress (kbar)  15488.63      0.00     -0.00
                                0.00  15488.63      0.00
                               -0.00      0.00  15488.63

     local   stress (kbar)  -4149.23     -0.00      0.00
                               -0.00  -4149.23     -0.00
                                0.00     -0.00  -4149.23

     nonloc. stress (kbar)  13125.80      0.00      0.00
                                0.00  13125.80     -0.00
                                0.00     -0.00  13125.80

     hartree stress (kbar)   5647.30      0.00     -0.00
                                0.00   5647.30     -0.00
                               -0.00     -0.00   5647.30

     exc-cor stress (kbar)  -3724.70     -0.00     -0.00
                               -0.00  -3724.70     -0.00
                               -0.00     -0.00  -3724.70

     corecor stress (kbar)  -1458.81      0.00      0.00
                                0.00  -1458.81      0.00
                                0.00      0.00  -1458.81

     ewald   stress (kbar) -24779.66     -0.00      0.00
                               -0.00 -24779.66      0.00
                                0.00      0.00 -24779.66

     hubbard stress (kbar)      0.00      0.00      0.00
                                0.00      0.00      0.00
                                0.00      0.00      0.00

     london  stress (kbar)      0.00      0.00      0.00
                                0.00      0.00      0.00
                                0.00      0.00      0.00

     DFT-D3  stress (kbar)      0.00      0.00      0.00
                                0.00      0.00      0.00
                                0.00      0.00      0.00

     XDM     stress (kbar)      0.00      0.00      0.00
                                0.00      0.00      0.00
                                0.00      0.00      0.00

     dft-nl  stress (kbar)      0.00      0.00      0.00
                                0.00      0.00      0.00
                                0.00      0.00      0.00

     TS-vdW  stress (kbar)      0.00      0.00      0.00
                                0.00      0.00      0.00
                                0.00      0.00      0.00



     Writing output data file CaO.save/
 
     init_run     :      0.58s CPU      0.60s WALL (       2 calls)
     electrons    :      4.10s CPU      5.85s WALL (       5 calls)
     update_pot   :      0.52s CPU      0.56s WALL (       3 calls)
     forces       :      0.44s CPU      0.46s WALL (       5 calls)
     stress       :      1.72s CPU      1.69s WALL (       5 calls)

     Called by init_run:
     wfcinit      :      0.08s CPU      0.09s WALL (       2 calls)
     wfcinit:atom :      0.00s CPU      0.00s WALL (      16 calls)
     wfcinit:wfcr :      0.08s CPU      0.08s WALL (      16 calls)
     potinit      :      0.08s CPU      0.09s WALL (       2 calls)
     hinit0       :      0.37s CPU      0.37s WALL (       2 calls)

     Called by electrons:
     c_bands      :      2.89s CPU      4.06s WALL (      41 calls)
     sum_band     :      0.63s CPU      0.95s WALL (      41 calls)
     v_of_rho     :      0.28s CPU      0.30s WALL (      45 calls)
     v_h          :      0.01s CPU      0.02s WALL (      45 calls)
     v_xc         :      0.35s CPU      0.35s WALL (      55 calls)
     newd         :      0.26s CPU      0.30s WALL (      45 calls)
     mix_rho      :      0.02s CPU      0.03s WALL (      41 calls)

     Called by c_bands:
     init_us_2    :      0.01s CPU      0.05s WALL (     752 calls)
     cegterg      :      2.81s CPU      3.75s WALL (     328 calls)

     Called by sum_band:
     sum_band:bec :      0.01s CPU      0.01s WALL (     328 calls)
     addusdens    :      0.21s CPU      0.28s WALL (      41 calls)

     Called by *egterg:
     h_psi        :      2.19s CPU      2.96s WALL (    1167 calls)
     s_psi        :      0.01s CPU      0.04s WALL (    1167 calls)
     g_psi        :      0.02s CPU      0.02s WALL (     823 calls)
     cdiaghg      :      0.24s CPU      0.35s WALL (    1119 calls)
     cegterg:over :      0.10s CPU      0.13s WALL (     823 calls)
     cegterg:upda :      0.02s CPU      0.03s WALL (     823 calls)
     cegterg:last :      0.03s CPU      0.01s WALL (     337 calls)

     Called by h_psi:
     h_psi:pot    :      2.18s CPU      2.93s WALL (    1167 calls)
     h_psi:calbec :      0.10s CPU      0.13s WALL (    1167 calls)
     vloc_psi     :      2.01s CPU      2.69s WALL (    1167 calls)
     add_vuspsi   :      0.01s CPU      0.04s WALL (    1167 calls)

     General routines
     calbec       :      0.07s CPU      0.15s WALL (    1695 calls)
     fft          :      0.22s CPU      0.23s WALL (     704 calls)
     ffts         :      0.02s CPU      0.01s WALL (      86 calls)
     fftw         :      2.01s CPU      2.80s WALL (   24302 calls)
     interpolate  :      0.01s CPU      0.02s WALL (      45 calls)
 
     Parallel routines
     fft_scatt_xy :      0.29s CPU      0.41s WALL (   25092 calls)
     fft_scatt_yz :      0.97s CPU      1.22s WALL (   25092 calls)
 
     PWSCF        :      9.45s CPU     13.32s WALL

 
   This run was terminated on:   6: 2:35  13Mar2020            

=------------------------------------------------------------------------------=
   JOB DONE.
=------------------------------------------------------------------------------=
