
     Program PWSCF v.6.4.1 starts on  5Jan2021 at  9:19: 8 

     This program is part of the open-source Quantum ESPRESSO suite
     for quantum simulation of materials; please cite
         "P. Giannozzi et al., J. Phys.:Condens. Matter 21 395502 (2009);
         "P. Giannozzi et al., J. Phys.:Condens. Matter 29 465901 (2017);
          URL http://www.quantum-espresso.org", 
     in publications or presentations arising from this work. More details at
     http://www.quantum-espresso.org/quote

     Parallel version (MPI), running on     8 processors

     MPI processes distributed on     1 nodes
     R & G space division:  proc/nbgrp/npool/nimage =       8
     Waiting for input...
     Reading input from standard input

     Current dimensions of program PWSCF are:
     Max number of different atomic species (ntypx) = 10
     Max number of k-points (npk) =  40000
     Max angular momentum in pseudopotentials (lmaxx) =  3

     Subspace diagonalization in iterative solution of the eigenvalue problem:
     a serial algorithm will be used

     Found symmetry operation: I + ( -0.5000 -0.5000  0.0000)
     This is a supercell, fractional translations are disabled
 
     Parallelization info
     --------------------
     sticks:   dense  smooth     PW     G-vecs:    dense   smooth      PW
     Min         122      53     19                 3487     1032     210
     Max         123      54     20                 3490     1036     212
     Sum         981     431    153                27913     8277    1685
 


     bravais-lattice index     =          -12
     lattice parameter (alat)  =       8.3937  a.u.
     unit-cell volume          =     295.4733 (a.u.)^3
     number of atoms/cell      =            4
     number of atomic types    =            1
     number of electrons       =        24.00
     number of Kohn-Sham states=           16
     kinetic-energy cutoff     =      35.0000  Ry
     charge density cutoff     =     315.0000  Ry
     convergence threshold     =      1.0E-06
     mixing beta               =       0.4000
     number of iterations used =            8  plain     mixing
     Exchange-correlation      = SLA PW PBE PBE ( 1  4  3  4 0 0)
     nstep                     =          100


     celldm(1)=   8.393746  celldm(2)=   0.554677  celldm(3)=   1.113583
     celldm(4)=   0.000000  celldm(5)=  -0.587964  celldm(6)=   0.000000

     crystal axes: (cart. coord. in units of alat)
               a(1) = (   1.000000   0.000000   0.000000 )  
               a(2) = (   0.000000   0.554677   0.000000 )  
               a(3) = (  -0.654747   0.000000   0.900763 )  

     reciprocal axes: (cart. coord. in units 2 pi/alat)
               b(1) = (  1.000000 -0.000000  0.726880 )  
               b(2) = (  0.000000  1.802850 -0.000000 )  
               b(3) = (  0.000000  0.000000  1.110170 )  


     PseudoPot. # 1 for O  read from file:
     ../pseudo/O.pbe-van_ak.UPF
     MD5 check sum: 572909515f9aa9498032b6eb5528d5f9
     Pseudo is Ultrasoft, Zval =  6.0
     Generated by new atomic code, or converted to UPF format
     Using radial grid of  737 points,  4 beta functions with: 
                l(1) =   0
                l(2) =   0
                l(3) =   1
                l(4) =   1
     Q(r) pseudized with  8 coefficients,  rinner =    0.800   0.800   0.800


     atomic species   valence    mass     pseudopotential
        O              6.00    15.99940     O ( 1.00)

      4 Sym. Ops., with inversion, found


                                    s                        frac. trans.

      isym =  1     identity                                     

 cryst.   s( 1) = (     1          0          0      )
                  (     0          1          0      )
                  (     0          0          1      )

 cart.    s( 1) = (  1.0000000  0.0000000  0.0000000 )
                  (  0.0000000  1.0000000  0.0000000 )
                  (  0.0000000  0.0000000  1.0000000 )


      isym =  2     180 deg rotation - cart. axis [0,1,0]        

 cryst.   s( 2) = (    -1          0          0      )
                  (     0          1          0      )
                  (     0          0         -1      )

 cart.    s( 2) = ( -1.0000000  0.0000000 -0.0000000 )
                  (  0.0000000  1.0000000  0.0000000 )
                  (  0.0000000  0.0000000 -1.0000000 )


      isym =  3     inversion                                    

 cryst.   s( 3) = (    -1          0          0      )
                  (     0         -1          0      )
                  (     0          0         -1      )

 cart.    s( 3) = ( -1.0000000  0.0000000 -0.0000000 )
                  (  0.0000000 -1.0000000  0.0000000 )
                  (  0.0000000  0.0000000 -1.0000000 )


      isym =  4     inv. 180 deg rotation - cart. axis [0,1,0]   

 cryst.   s( 4) = (     1          0          0      )
                  (     0         -1          0      )
                  (     0          0          1      )

 cart.    s( 4) = (  1.0000000  0.0000000  0.0000000 )
                  (  0.0000000 -1.0000000  0.0000000 )
                  (  0.0000000  0.0000000  1.0000000 )


     point group C_2h (2/m) 
     there are  4 classes
     the character table:

       E     C2    i     s_h  
A_g    1.00  1.00  1.00  1.00
B_g    1.00 -1.00  1.00 -1.00
A_u    1.00  1.00 -1.00 -1.00
B_u    1.00 -1.00 -1.00  1.00

     the symmetry operations in each class and the name of the first element:

     E        1
          identity                                               
     C2       2
          180 deg rotation - cart. axis [0,1,0]                  
     i        3
          inversion                                              
     s_h      4
          inv. 180 deg rotation - cart. axis [0,1,0]             

   Cartesian axes

     site n.     atom                  positions (alat units)
         1           O   tau(   1) = (  -0.0111762   0.0000000   0.1378167  )
         2           O   tau(   2) = (   0.4888238   0.2773387   0.1378167  )
         3           O   tau(   3) = (  -0.1435703   0.2773387   0.7629459  )
         4           O   tau(   4) = (   0.3564297   0.0000000   0.7629459  )

   Crystallographic axes

     site n.     atom                  positions (cryst. coord.)
         1           O   tau(   1) = (  0.0890000  0.0000000  0.1530000  )
         2           O   tau(   2) = (  0.5890000  0.5000000  0.1530000  )
         3           O   tau(   3) = (  0.4110000  0.5000000  0.8470000  )
         4           O   tau(   4) = (  0.9110000  0.0000000  0.8470000  )

     number of k points=    40  gaussian smearing, width (Ry)=  0.0100
                       cart. coord. in units 2pi/alat
        k(    1) = (   0.0000000   0.0000000   0.0000000), wk =   0.0208333
        k(    2) = (   0.0000000   0.0000000   0.2775426), wk =   0.0416667
        k(    3) = (   0.0000000   0.0000000  -0.5550852), wk =   0.0208333
        k(    4) = (   0.0000000   0.3004750   0.0000000), wk =   0.0416667
        k(    5) = (   0.0000000   0.3004750   0.2775426), wk =   0.0833333
        k(    6) = (   0.0000000   0.3004750  -0.5550852), wk =   0.0416667
        k(    7) = (   0.0000000   0.6009500   0.0000000), wk =   0.0416667
        k(    8) = (   0.0000000   0.6009500   0.2775426), wk =   0.0833333
        k(    9) = (   0.0000000   0.6009500  -0.5550852), wk =   0.0416667
        k(   10) = (   0.0000000  -0.9014250   0.0000000), wk =   0.0208333
        k(   11) = (   0.0000000  -0.9014250   0.2775426), wk =   0.0416667
        k(   12) = (   0.0000000  -0.9014250  -0.5550852), wk =   0.0208333
        k(   13) = (   0.2500000   0.0000000   0.1817200), wk =   0.0416667
        k(   14) = (   0.2500000   0.0000000   0.4592626), wk =   0.0416667
        k(   15) = (   0.2500000   0.0000000  -0.3733651), wk =   0.0416667
        k(   16) = (   0.2500000   0.0000000  -0.0958226), wk =   0.0416667
        k(   17) = (   0.2500000   0.3004750   0.1817200), wk =   0.0833333
        k(   18) = (   0.2500000   0.3004750   0.4592626), wk =   0.0833333
        k(   19) = (   0.2500000   0.3004750  -0.3733651), wk =   0.0833333
        k(   20) = (   0.2500000   0.3004750  -0.0958226), wk =   0.0833333
        k(   21) = (   0.2500000   0.6009500   0.1817200), wk =   0.0833333
        k(   22) = (   0.2500000   0.6009500   0.4592626), wk =   0.0833333
        k(   23) = (   0.2500000   0.6009500  -0.3733651), wk =   0.0833333
        k(   24) = (   0.2500000   0.6009500  -0.0958226), wk =   0.0833333
        k(   25) = (   0.2500000  -0.9014250   0.1817200), wk =   0.0416667
        k(   26) = (   0.2500000  -0.9014250   0.4592626), wk =   0.0416667
        k(   27) = (   0.2500000  -0.9014250  -0.3733651), wk =   0.0416667
        k(   28) = (   0.2500000  -0.9014250  -0.0958226), wk =   0.0416667
        k(   29) = (  -0.5000000   0.0000000  -0.3634401), wk =   0.0208333
        k(   30) = (  -0.5000000   0.0000000  -0.0858975), wk =   0.0416667
        k(   31) = (  -0.5000000   0.0000000  -0.9185253), wk =   0.0208333
        k(   32) = (  -0.5000000   0.3004750  -0.3634401), wk =   0.0416667
        k(   33) = (  -0.5000000   0.3004750  -0.0858975), wk =   0.0833333
        k(   34) = (  -0.5000000   0.3004750  -0.9185253), wk =   0.0416667
        k(   35) = (  -0.5000000   0.6009500  -0.3634401), wk =   0.0416667
        k(   36) = (  -0.5000000   0.6009500  -0.0858975), wk =   0.0833333
        k(   37) = (  -0.5000000   0.6009500  -0.9185253), wk =   0.0416667
        k(   38) = (  -0.5000000  -0.9014250  -0.3634401), wk =   0.0208333
        k(   39) = (  -0.5000000  -0.9014250  -0.0858975), wk =   0.0416667
        k(   40) = (  -0.5000000  -0.9014250  -0.9185253), wk =   0.0208333

                       cryst. coord.
        k(    1) = (   0.0000000   0.0000000   0.0000000), wk =   0.0208333
        k(    2) = (   0.0000000   0.0000000   0.2500000), wk =   0.0416667
        k(    3) = (   0.0000000   0.0000000  -0.5000000), wk =   0.0208333
        k(    4) = (   0.0000000   0.1666667   0.0000000), wk =   0.0416667
        k(    5) = (   0.0000000   0.1666667   0.2500000), wk =   0.0833333
        k(    6) = (   0.0000000   0.1666667  -0.5000000), wk =   0.0416667
        k(    7) = (   0.0000000   0.3333333   0.0000000), wk =   0.0416667
        k(    8) = (   0.0000000   0.3333333   0.2500000), wk =   0.0833333
        k(    9) = (   0.0000000   0.3333333  -0.5000000), wk =   0.0416667
        k(   10) = (   0.0000000  -0.5000000   0.0000000), wk =   0.0208333
        k(   11) = (   0.0000000  -0.5000000   0.2500000), wk =   0.0416667
        k(   12) = (   0.0000000  -0.5000000  -0.5000000), wk =   0.0208333
        k(   13) = (   0.2500000   0.0000000   0.0000000), wk =   0.0416667
        k(   14) = (   0.2500000   0.0000000   0.2500000), wk =   0.0416667
        k(   15) = (   0.2500000   0.0000000  -0.5000000), wk =   0.0416667
        k(   16) = (   0.2500000   0.0000000  -0.2500000), wk =   0.0416667
        k(   17) = (   0.2500000   0.1666667   0.0000000), wk =   0.0833333
        k(   18) = (   0.2500000   0.1666667   0.2500000), wk =   0.0833333
        k(   19) = (   0.2500000   0.1666667  -0.5000000), wk =   0.0833333
        k(   20) = (   0.2500000   0.1666667  -0.2500000), wk =   0.0833333
        k(   21) = (   0.2500000   0.3333333   0.0000000), wk =   0.0833333
        k(   22) = (   0.2500000   0.3333333   0.2500000), wk =   0.0833333
        k(   23) = (   0.2500000   0.3333333  -0.5000000), wk =   0.0833333
        k(   24) = (   0.2500000   0.3333333  -0.2500000), wk =   0.0833333
        k(   25) = (   0.2500000  -0.5000000   0.0000000), wk =   0.0416667
        k(   26) = (   0.2500000  -0.5000000   0.2500000), wk =   0.0416667
        k(   27) = (   0.2500000  -0.5000000  -0.5000000), wk =   0.0416667
        k(   28) = (   0.2500000  -0.5000000  -0.2500000), wk =   0.0416667
        k(   29) = (  -0.5000000   0.0000000   0.0000000), wk =   0.0208333
        k(   30) = (  -0.5000000   0.0000000   0.2500000), wk =   0.0416667
        k(   31) = (  -0.5000000   0.0000000  -0.5000000), wk =   0.0208333
        k(   32) = (  -0.5000000   0.1666667   0.0000000), wk =   0.0416667
        k(   33) = (  -0.5000000   0.1666667   0.2500000), wk =   0.0833333
        k(   34) = (  -0.5000000   0.1666667  -0.5000000), wk =   0.0416667
        k(   35) = (  -0.5000000   0.3333333   0.0000000), wk =   0.0416667
        k(   36) = (  -0.5000000   0.3333333   0.2500000), wk =   0.0833333
        k(   37) = (  -0.5000000   0.3333333  -0.5000000), wk =   0.0416667
        k(   38) = (  -0.5000000  -0.5000000   0.0000000), wk =   0.0208333
        k(   39) = (  -0.5000000  -0.5000000   0.2500000), wk =   0.0416667
        k(   40) = (  -0.5000000  -0.5000000  -0.5000000), wk =   0.0208333

     Dense  grid:    27913 G-vectors     FFT dimensions: (  48,  27,  54)

     Smooth grid:     8277 G-vectors     FFT dimensions: (  32,  18,  36)

     Dynamical RAM for                 wfc:       0.03 MB

     Dynamical RAM for     wfc (w. buffer):       1.29 MB

     Dynamical RAM for           str. fact:       0.05 MB

     Dynamical RAM for           local pot:       0.00 MB

     Dynamical RAM for          nlocal pot:       0.06 MB

     Dynamical RAM for                qrad:       1.09 MB

     Dynamical RAM for          rho,v,vnew:       0.37 MB

     Dynamical RAM for               rhoin:       0.12 MB

     Dynamical RAM for            rho*nmix:       0.85 MB

     Dynamical RAM for           G-vectors:       0.21 MB

     Dynamical RAM for          h,s,v(r/c):       0.19 MB

     Dynamical RAM for          <psi|beta>:       0.01 MB

     Dynamical RAM for                 psi:       0.13 MB

     Dynamical RAM for                hpsi:       0.13 MB

     Dynamical RAM for                spsi:       0.13 MB

     Dynamical RAM for      wfcinit/wfcrot:       0.07 MB

     Dynamical RAM for           addusdens:       2.50 MB

     Dynamical RAM for          addusforce:       2.85 MB

     Dynamical RAM for         addusstress:       2.66 MB

     Estimated static dynamical RAM per process >       4.50 MB

     Estimated max dynamical RAM per process >       7.35 MB

     Estimated total dynamical RAM >      58.77 MB

     Initial potential from superposition of free atoms

     starting charge   23.99999, renormalised to   24.00000
     Starting wfcs are   16 randomized atomic wfcs

     total cpu time spent up to now is        1.1 secs

     Self-consistent Calculation

     iteration #  1     ecut=    35.00 Ry     beta= 0.40
     Davidson diagonalization with overlap
     ethr =  1.00E-02,  avg # of iterations =  3.0

     Threshold (ethr) on eigenvalues was too large:
     Diagonalizing with lowered threshold

     Davidson diagonalization with overlap
     ethr =  4.36E-04,  avg # of iterations =  2.0

     total cpu time spent up to now is        2.1 secs

     total energy              =    -127.67827067 Ry
     Harris-Foulkes estimate   =    -127.72184778 Ry
     estimated scf accuracy    <       0.10612075 Ry

     iteration #  2     ecut=    35.00 Ry     beta= 0.40
     Davidson diagonalization with overlap
     ethr =  4.42E-04,  avg # of iterations =  1.1

     total cpu time spent up to now is        2.5 secs

     total energy              =    -127.67725494 Ry
     Harris-Foulkes estimate   =    -127.68511299 Ry
     estimated scf accuracy    <       0.01936517 Ry

     iteration #  3     ecut=    35.00 Ry     beta= 0.40
     Davidson diagonalization with overlap
     ethr =  8.07E-05,  avg # of iterations =  2.2

     total cpu time spent up to now is        3.0 secs

     total energy              =    -127.68067897 Ry
     Harris-Foulkes estimate   =    -127.68074202 Ry
     estimated scf accuracy    <       0.00112656 Ry

     iteration #  4     ecut=    35.00 Ry     beta= 0.40
     Davidson diagonalization with overlap
     ethr =  4.69E-06,  avg # of iterations =  2.1

     total cpu time spent up to now is        3.4 secs

     total energy              =    -127.68083629 Ry
     Harris-Foulkes estimate   =    -127.68079111 Ry
     estimated scf accuracy    <       0.00013370 Ry

     iteration #  5     ecut=    35.00 Ry     beta= 0.40
     Davidson diagonalization with overlap
     ethr =  5.57E-07,  avg # of iterations =  1.0

     total cpu time spent up to now is        3.7 secs

     total energy              =    -127.68083705 Ry
     Harris-Foulkes estimate   =    -127.68085227 Ry
     estimated scf accuracy    <       0.00015999 Ry

     iteration #  6     ecut=    35.00 Ry     beta= 0.40
     Davidson diagonalization with overlap
     ethr =  5.57E-07,  avg # of iterations =  1.0

     total cpu time spent up to now is        4.1 secs

     total energy              =    -127.68084477 Ry
     Harris-Foulkes estimate   =    -127.68085138 Ry
     estimated scf accuracy    <       0.00002876 Ry

     iteration #  7     ecut=    35.00 Ry     beta= 0.40
     Davidson diagonalization with overlap
     ethr =  1.20E-07,  avg # of iterations =  2.0

     total cpu time spent up to now is        4.6 secs

     total energy              =    -127.68085086 Ry
     Harris-Foulkes estimate   =    -127.68085005 Ry
     estimated scf accuracy    <       0.00000141 Ry

     iteration #  8     ecut=    35.00 Ry     beta= 0.40
     Davidson diagonalization with overlap
     ethr =  5.86E-09,  avg # of iterations =  1.8

     total cpu time spent up to now is        4.9 secs

     End of self-consistent calculation

          k = 0.0000 0.0000 0.0000 (  1041 PWs)   bands (ev):

   -24.5027 -23.5741 -12.1262 -11.1708  -6.1623  -5.8491  -3.9762  -2.7138
    -2.1425  -1.9554   0.6876   3.7546   4.0290   4.2094  11.5406  12.8625

     occupation numbers 
     1.0000   1.0000   1.0000   1.0000   1.0000   1.0000   1.0000   1.0000
     1.0000   1.0000   1.0000   0.0000   0.0000   0.0000   0.0000   0.0000

          k = 0.0000 0.0000 0.2775 (  1037 PWs)   bands (ev):

   -24.4877 -23.5791 -12.3760 -11.0697  -6.2282  -5.3092  -4.2077  -2.6933
    -2.1485  -1.9669   0.8789   3.7031   4.0411   4.2334  10.1950  12.2380

     occupation numbers 
     1.0000   1.0000   1.0000   1.0000   1.0000   1.0000   1.0000   1.0000
     1.0000   1.0000   1.0000   0.0000   0.0000   0.0000   0.0000   0.0000

          k = 0.0000 0.0000-0.5551 (  1028 PWs)   bands (ev):

   -24.4728 -23.5843 -12.6005 -10.9641  -6.2832  -4.7637  -4.4552  -2.6731
    -2.1537  -1.9764   1.0906   3.6503   4.0554   4.2588   8.8594  12.9582

     occupation numbers 
     1.0000   1.0000   1.0000   1.0000   1.0000   1.0000   1.0000   1.0000
     1.0000   1.0000   1.0000   0.0000   0.0000   0.0000   0.0000   0.0000

          k = 0.0000 0.3005 0.0000 (  1029 PWs)   bands (ev):

   -24.3147 -23.4925 -11.8910 -11.0321  -5.8341  -5.7352  -4.0069  -3.5214
    -2.7408  -2.3001   0.9872   3.0832   3.5230   3.9175  11.7772  12.9182

     occupation numbers 
     1.0000   1.0000   1.0000   1.0000   1.0000   1.0000   1.0000   1.0000
     1.0000   1.0000   1.0000   0.1275   0.0000   0.0000   0.0000   0.0000

          k = 0.0000 0.3005 0.2775 (  1032 PWs)   bands (ev):

   -24.3011 -23.4969 -12.1201 -10.9481  -5.8957  -5.2515  -4.2020  -3.4927
    -2.7477  -2.3073   1.1618   3.0234   3.5317   3.9357  10.5416  12.3534

     occupation numbers 
     1.0000   1.0000   1.0000   1.0000   1.0000   1.0000   1.0000   1.0000
     1.0000   1.0000   1.0000   0.3026   0.0000   0.0000   0.0000   0.0000

          k = 0.0000 0.3005-0.5551 (  1032 PWs)   bands (ev):

   -24.2875 -23.5010 -12.3275 -10.8608  -5.9463  -4.7693  -4.4141  -3.4596
    -2.7481  -2.3155   1.3550   2.9567   3.5259   3.9551   9.3432  12.9634

     occupation numbers 
     1.0000   1.0000   1.0000   1.0000   1.0000   1.0000   1.0000   1.0000
     1.0000   1.0000   1.0000   0.5701   0.0000   0.0000   0.0000   0.0000

          k = 0.0000 0.6010 0.0000 (  1033 PWs)   bands (ev):

   -23.8693 -23.3719 -11.3259 -10.7859  -5.6819  -5.1415  -4.9522  -3.8995
    -3.8821  -2.8476   1.7725   1.8601   2.1725   3.5096  12.3214  12.9773

     occupation numbers 
     1.0000   1.0000   1.0000   1.0000   1.0000   1.0000   1.0000   1.0000
     1.0000   1.0000   1.0000   1.0000   1.0000   0.0000   0.0000   0.0000

          k = 0.0000 0.6010 0.2775 (  1027 PWs)   bands (ev):

   -23.8597 -23.3728 -11.4920 -10.7578  -5.4081  -5.1239  -4.9986  -3.9601
    -3.8257  -2.8604   1.7726   1.9268   2.1555   3.5481  11.4015  12.5133

     occupation numbers 
     1.0000   1.0000   1.0000   1.0000   1.0000   1.0000   1.0000   1.0000
     1.0000   1.0000   1.0000   1.0000   1.0000   0.0000   0.0000   0.0000

          k = 0.0000 0.6010-0.5551 (  1038 PWs)   bands (ev):

   -23.8506 -23.3741 -11.6456 -10.7292  -5.1743  -5.1201  -5.0395  -4.0079
    -3.7214  -2.8771   1.7100   2.0481   2.1136   3.5883  10.5488  12.7644

     occupation numbers 
     1.0000   1.0000   1.0000   1.0000   1.0000   1.0000   1.0000   1.0000
     1.0000   1.0000   1.0000   1.0000   1.0000   0.0000   0.0000   0.0000

          k = 0.0000-0.9014 0.0000 (  1036 PWs)   bands (ev):

   -23.4715 -23.4713 -10.8342 -10.8341  -5.8527  -5.8527  -4.0260  -4.0259
    -3.8190  -3.8188   1.3950   1.3950   2.7361   2.7362  12.8068  12.8071

     occupation numbers 
     1.0000   1.0000   1.0000   1.0000   1.0000   1.0000   1.0000   1.0000
     1.0000   1.0000   1.0000   1.0000   0.9932   0.9932   0.0000   0.0000

          k = 0.0000-0.9014 0.2775 (  1024 PWs)   bands (ev):

   -23.4675 -23.4672 -10.9018 -10.9017  -5.7648  -5.7647  -4.0002  -4.0001
    -3.8235  -3.8233   1.3480   1.3480   2.8174   2.8175  12.2516  12.2518

     occupation numbers 
     1.0000   1.0000   1.0000   1.0000   1.0000   1.0000   1.0000   1.0000
     1.0000   1.0000   1.0000   1.0000   0.9479   0.9477   0.0000   0.0000

          k = 0.0000-0.9014-0.5551 (  1028 PWs)   bands (ev):

   -23.4640 -23.4637 -10.9666 -10.9666  -5.6975  -5.6974  -3.8991  -3.8990
    -3.8737  -3.8735   1.2759   1.2759   2.8999   2.9001  11.9296  11.9298

     occupation numbers 
     1.0000   1.0000   1.0000   1.0000   1.0000   1.0000   1.0000   1.0000
     1.0000   1.0000   1.0000   1.0000   0.7785   0.7779   0.0000   0.0000

          k = 0.2500 0.0000 0.1817 (  1035 PWs)   bands (ev):

   -24.3729 -23.7172 -12.0806 -11.4090  -5.7823  -5.5560  -3.9938  -2.7146
    -2.6032  -2.0679   1.2641   3.6202   3.8061   4.1266  11.1420  11.4393

     occupation numbers 
     1.0000   1.0000   1.0000   1.0000   1.0000   1.0000   1.0000   1.0000
     1.0000   1.0000   1.0000   0.0000   0.0000   0.0000   0.0000   0.0000

          k = 0.2500 0.0000 0.4593 (  1038 PWs)   bands (ev):

   -24.3536 -23.7266 -12.3872 -11.2337  -5.9178  -4.8591  -4.3262  -2.7074
    -2.5767  -2.0845   1.5089   3.5876   3.7372   4.1674   9.3937  12.2613

     occupation numbers 
     1.0000   1.0000   1.0000   1.0000   1.0000   1.0000   1.0000   1.0000
     1.0000   1.0000   1.0000   0.0000   0.0000   0.0000   0.0000   0.0000

          k = 0.2500 0.0000-0.3734 (  1041 PWs)   bands (ev):

   -24.3576 -23.7313 -12.3282 -11.1599  -5.9809  -4.9815  -4.3640  -2.6999
    -2.5816  -2.0900   1.4173   3.5150   3.7498   4.1794   9.6820  12.8793

     occupation numbers 
     1.0000   1.0000   1.0000   1.0000   1.0000   1.0000   1.0000   1.0000
     1.0000   1.0000   1.0000   0.0000   0.0000   0.0000   0.0000   0.0000

          k = 0.2500 0.0000-0.0958 (  1043 PWs)   bands (ev):

   -24.3772 -23.7218 -12.0129 -11.3416  -5.8183  -5.6822  -4.0622  -2.7034
    -2.6083  -2.0728   1.1898   3.5489   3.8182   4.1390  11.4309  11.9895

     occupation numbers 
     1.0000   1.0000   1.0000   1.0000   1.0000   1.0000   1.0000   1.0000
     1.0000   1.0000   1.0000   0.0000   0.0000   0.0000   0.0000   0.0000

          k = 0.2500 0.3005 0.1817 (  1039 PWs)   bands (ev):

   -24.1980 -23.6174 -11.8511 -11.2464  -5.5963  -5.4974  -3.9544  -3.3515
    -3.1480  -2.4203   1.4209   3.1296   3.2113   3.8789  11.4145  11.6876

     occupation numbers 
     1.0000   1.0000   1.0000   1.0000   1.0000   1.0000   1.0000   1.0000
     1.0000   1.0000   1.0000   0.0526   0.0068   0.0000   0.0000   0.0000

          k = 0.2500 0.3005 0.4593 (  1037 PWs)   bands (ev):

   -24.1807 -23.6252 -12.1316 -11.0961  -5.7309  -4.8925  -4.2274  -3.3138
    -3.1327  -2.4285   1.6347   3.1109   3.1399   3.8982   9.8218  12.3893

     occupation numbers 
     1.0000   1.0000   1.0000   1.0000   1.0000   1.0000   1.0000   1.0000
     1.0000   1.0000   1.0000   0.0770   0.0420   0.0000   0.0000   0.0000

          k = 0.2500 0.3005-0.3734 (  1038 PWs)   bands (ev):

   -24.1845 -23.6297 -12.0760 -11.0286  -5.7987  -4.9909  -4.2464  -3.3263
    -3.1638  -2.4128   1.5766   3.1098   3.1381   3.8628  10.0773  12.8955

     occupation numbers 
     1.0000   1.0000   1.0000   1.0000   1.0000   1.0000   1.0000   1.0000
     1.0000   1.0000   1.0000   0.0786   0.0437   0.0000   0.0000   0.0000

          k = 0.2500 0.3005-0.0958 (  1038 PWs)   bands (ev):

   -24.2021 -23.6215 -11.7880 -11.1840  -5.6394  -5.6043  -3.9998  -3.3655
    -3.1707  -2.4046   1.3764   3.1309   3.2124   3.8406  11.6676  12.1764

     occupation numbers 
     1.0000   1.0000   1.0000   1.0000   1.0000   1.0000   1.0000   1.0000
     1.0000   1.0000   1.0000   0.0511   0.0066   0.0000   0.0000   0.0000

          k = 0.2500 0.6010 0.1817 (  1031 PWs)   bands (ev):

   -23.7943 -23.4425 -11.3115 -10.9296  -5.6912  -5.6623  -4.1029  -4.0057
    -3.8426  -2.7662   1.3175   1.8142   2.6767   3.6262  12.0304  12.2268

     occupation numbers 
     1.0000   1.0000   1.0000   1.0000   1.0000   1.0000   1.0000   1.0000
     1.0000   1.0000   1.0000   1.0000   0.9990   0.0000   0.0000   0.0000

          k = 0.2500 0.6010 0.4593 (  1023 PWs)   bands (ev):

   -23.7827 -23.4459 -11.5103 -10.8603  -5.7204  -5.4286  -4.1004  -3.9572
    -3.8573  -2.7763   1.3431   1.7935   2.7267   3.6528  10.8919  12.5068

     occupation numbers 
     1.0000   1.0000   1.0000   1.0000   1.0000   1.0000   1.0000   1.0000
     1.0000   1.0000   1.0000   1.0000   0.9949   0.0000   0.0000   0.0000

          k = 0.2500 0.6010-0.3734 (  1029 PWs)   bands (ev):

   -23.7861 -23.4493 -11.4631 -10.8078  -5.7647  -5.4570  -4.1781  -3.9516
    -3.9219  -2.7525   1.4079   1.8501   2.6421   3.5941  11.0764  12.7848

     occupation numbers 
     1.0000   1.0000   1.0000   1.0000   1.0000   1.0000   1.0000   1.0000
     1.0000   1.0000   1.0000   1.0000   0.9997   0.0000   0.0000   0.0000

          k = 0.2500 0.6010-0.0958 (  1035 PWs)   bands (ev):

   -23.7978 -23.4457 -11.2597 -10.8791  -5.7320  -5.6926  -4.1752  -4.0890
    -3.8304  -2.7427   1.3914   1.8724   2.5951   3.5677  12.2012  12.5311

     occupation numbers 
     1.0000   1.0000   1.0000   1.0000   1.0000   1.0000   1.0000   1.0000
     1.0000   1.0000   1.0000   1.0000   1.0000   0.0000   0.0000   0.0000

          k = 0.2500-0.9014 0.1817 (  1040 PWs)   bands (ev):

   -23.4658 -23.4655 -10.8844 -10.8843  -6.0789  -6.0788  -4.0533  -4.0532
    -3.3602  -3.3600   1.0237   1.0237   3.1641   3.1643  12.4539  12.4542

     occupation numbers 
     1.0000   1.0000   1.0000   1.0000   1.0000   1.0000   1.0000   1.0000
     1.0000   1.0000   1.0000   1.0000   0.0239   0.0238   0.0000   0.0000

          k = 0.2500-0.9014 0.4593 (  1022 PWs)   bands (ev):

   -23.4619 -23.4616 -10.9500 -10.9500  -6.0188  -6.0187  -3.9821  -3.9819
    -3.3794  -3.3792   0.9919   0.9919   3.2241   3.2243  12.0276  12.0279

     occupation numbers 
     1.0000   1.0000   1.0000   1.0000   1.0000   1.0000   1.0000   1.0000
     1.0000   1.0000   1.0000   1.0000   0.0046   0.0046   0.0000   0.0000

          k = 0.2500-0.9014-0.3734 (  1022 PWs)   bands (ev):

   -23.4649 -23.4646 -10.9072 -10.9072  -6.0359  -6.0358  -4.0903  -4.0902
    -3.3375  -3.3373   1.0677   1.0677   3.1552   3.1554  12.1809  12.1812

     occupation numbers 
     1.0000   1.0000   1.0000   1.0000   1.0000   1.0000   1.0000   1.0000
     1.0000   1.0000   1.0000   1.0000   0.0296   0.0295   0.0000   0.0000

          k = 0.2500-0.9014-0.0958 (  1030 PWs)   bands (ev):

   -23.4685 -23.4682 -10.8404 -10.8403  -6.0932  -6.0931  -4.1668  -4.1666
    -3.3189  -3.3187   1.1079   1.1080   3.0943   3.0944  12.6015  12.6017

     occupation numbers 
     1.0000   1.0000   1.0000   1.0000   1.0000   1.0000   1.0000   1.0000
     1.0000   1.0000   1.0000   1.0000   0.1051   0.1048   0.0000   0.0000

          k =-0.5000 0.0000-0.3634 (  1042 PWs)   bands (ev):

   -24.0516 -24.0513 -11.8387 -11.8386  -5.2208  -5.2208  -3.7574  -3.7574
    -2.3364  -2.3363   2.5257   2.5259   3.9499   3.9501  10.7346  10.7348

     occupation numbers 
     1.0000   1.0000   1.0000   1.0000   1.0000   1.0000   1.0000   1.0000
     1.0000   1.0000   1.0000   1.0000   0.0000   0.0000   0.0000   0.0000

          k =-0.5000 0.0000-0.0859 (  1043 PWs)   bands (ev):

   -24.0664 -24.0454 -11.9419 -11.5895  -5.6616  -5.0162  -3.8362  -3.6584
    -2.3562  -2.3259   2.3530   2.5421   3.9236   4.0021  10.0818  12.8044

     occupation numbers 
     1.0000   1.0000   1.0000   1.0000   1.0000   1.0000   1.0000   1.0000
     1.0000   1.0000   1.0000   1.0000   0.0000   0.0000   0.0000   0.0000

          k =-0.5000 0.0000-0.9185 (  1042 PWs)   bands (ev):

   -24.0605 -24.0602 -11.7056 -11.7055  -5.4329  -5.4329  -3.7641  -3.7641
    -2.3466  -2.3465   2.3788   2.3790   3.9754   3.9756  11.4537  11.4539

     occupation numbers 
     1.0000   1.0000   1.0000   1.0000   1.0000   1.0000   1.0000   1.0000
     1.0000   1.0000   1.0000   1.0000   0.0000   0.0000   0.0000   0.0000

          k =-0.5000 0.3005-0.3634 (  1040 PWs)   bands (ev):

   -23.9118 -23.9115 -11.6337 -11.6336  -5.2612  -5.2611  -3.7581  -3.7580
    -2.8794  -2.8794   2.3295   2.3296   3.5587   3.5589  11.0398  11.0400

     occupation numbers 
     1.0000   1.0000   1.0000   1.0000   1.0000   1.0000   1.0000   1.0000
     1.0000   1.0000   1.0000   1.0000   0.0000   0.0000   0.0000   0.0000

          k =-0.5000 0.3005-0.0859 (  1038 PWs)   bands (ev):

   -23.9249 -23.9067 -11.7243 -11.4092  -5.6293  -5.0892  -3.8547  -3.6829
    -2.8885  -2.8646   2.2213   2.3640   3.5191   3.5710  10.4552  12.8760

     occupation numbers 
     1.0000   1.0000   1.0000   1.0000   1.0000   1.0000   1.0000   1.0000
     1.0000   1.0000   1.0000   1.0000   0.0000   0.0000   0.0000   0.0000

          k =-0.5000 0.3005-0.9185 (  1044 PWs)   bands (ev):

   -23.9200 -23.9197 -11.5102 -11.5101  -5.4312  -5.4311  -3.8107  -3.8107
    -2.8735  -2.8734   2.2693   2.2694   3.5338   3.5339  11.6720  11.6722

     occupation numbers 
     1.0000   1.0000   1.0000   1.0000   1.0000   1.0000   1.0000   1.0000
     1.0000   1.0000   1.0000   1.0000   0.0000   0.0000   0.0000   0.0000

          k =-0.5000 0.6010-0.3634 (  1026 PWs)   bands (ev):

   -23.6164 -23.6161 -11.1836 -11.1835  -5.7850  -5.7850  -3.9849  -3.9847
    -3.1014  -3.1013   1.3656   1.3657   3.4189   3.4190  11.7281  11.7283

     occupation numbers 
     1.0000   1.0000   1.0000   1.0000   1.0000   1.0000   1.0000   1.0000
     1.0000   1.0000   1.0000   1.0000   0.0000   0.0000   0.0000   0.0000

          k =-0.5000 0.6010-0.0859 (  1031 PWs)   bands (ev):

   -23.6252 -23.6143 -11.2289 -11.0331  -5.9270  -5.7294  -4.1487  -3.9551
    -3.0849  -3.0750   1.3876   1.4068   3.3554   3.3756  11.3912  12.8664

     occupation numbers 
     1.0000   1.0000   1.0000   1.0000   1.0000   1.0000   1.0000   1.0000
     1.0000   1.0000   1.0000   1.0000   0.0000   0.0000   0.0000   0.0000

          k =-0.5000 0.6010-0.9185 (  1030 PWs)   bands (ev):

   -23.6230 -23.6227 -11.0827 -11.0826  -5.8429  -5.8428  -4.1582  -4.1581
    -3.0586  -3.0584   1.4593   1.4594   3.3111   3.3112  12.1507  12.1509

     occupation numbers 
     1.0000   1.0000   1.0000   1.0000   1.0000   1.0000   1.0000   1.0000
     1.0000   1.0000   1.0000   1.0000   0.0002   0.0002   0.0000   0.0000

          k =-0.5000-0.9014-0.3634 (  1032 PWs)   bands (ev):

   -23.4600 -23.4597 -10.9334 -10.9333  -6.2602  -6.2602  -4.0094  -4.0093
    -3.0176  -3.0174   0.7740   0.7740   3.4807   3.4808  12.1288  12.1290

     occupation numbers 
     1.0000   1.0000   1.0000   1.0000   1.0000   1.0000   1.0000   1.0000
     1.0000   1.0000   1.0000   1.0000   0.0000   0.0000   0.0000   0.0000

          k =-0.5000-0.9014-0.0859 (  1016 PWs)   bands (ev):

   -23.4629 -23.4626 -10.8899 -10.8898  -6.2846  -6.2845  -4.0811  -4.0810
    -2.9970  -2.9969   0.8185   0.8186   3.4272   3.4273  12.3791  12.3793

     occupation numbers 
     1.0000   1.0000   1.0000   1.0000   1.0000   1.0000   1.0000   1.0000
     1.0000   1.0000   1.0000   1.0000   0.0000   0.0000   0.0000   0.0000

          k =-0.5000-0.9014-0.9185 (  1028 PWs)   bands (ev):

   -23.4658 -23.4655 -10.8466 -10.8465  -6.2901  -6.2901  -4.1906  -4.1905
    -2.9770  -2.9768   0.9008   0.9009   3.3738   3.3739  12.4168  12.4170

     occupation numbers 
     1.0000   1.0000   1.0000   1.0000   1.0000   1.0000   1.0000   1.0000
     1.0000   1.0000   1.0000   1.0000   0.0000   0.0000   0.0000   0.0000

     the Fermi energy is     2.9737 ev

!    total energy              =    -127.68085107 Ry
     Harris-Foulkes estimate   =    -127.68085093 Ry
     estimated scf accuracy    <       0.00000069 Ry

     The total energy is the sum of the following terms:

     one-electron contribution =     -63.07548808 Ry
     hartree contribution      =      42.45728335 Ry
     xc contribution           =     -27.17061719 Ry
     ewald contribution        =     -79.89086436 Ry
     smearing contrib. (-TS)   =      -0.00116479 Ry

     convergence has been achieved in   8 iterations

     Forces acting on atoms (cartesian axes, Ry/au):

     atom    1 type  1   force =     0.02290856    0.00000000   -0.00619071
     atom    2 type  1   force =     0.02289658    0.00000000   -0.00609502
     atom    3 type  1   force =    -0.02289658    0.00000000    0.00609502
     atom    4 type  1   force =    -0.02290856    0.00000000    0.00619071
     The non-local contrib.  to forces
     atom    1 type  1   force =     0.27213765    0.00000000   -3.10930769
     atom    2 type  1   force =     0.27213028    0.00000000   -3.10921998
     atom    3 type  1   force =    -0.27213028    0.00000000    3.10921998
     atom    4 type  1   force =    -0.27213765    0.00000000    3.10930769
     The ionic contribution  to forces
     atom    1 type  1   force =    -0.69230793   -0.00000000   13.39793502
     atom    2 type  1   force =    -0.69230793    0.00000000   13.39793502
     atom    3 type  1   force =     0.69230793   -0.00000000  -13.39793502
     atom    4 type  1   force =     0.69230793   -0.00000000  -13.39793502
     The local contribution  to forces
     atom    1 type  1   force =     0.44316552   -0.00000000  -10.29681300
     atom    2 type  1   force =     0.44319450    0.00000000  -10.29700105
     atom    3 type  1   force =    -0.44319450    0.00000000   10.29700105
     atom    4 type  1   force =    -0.44316552   -0.00000000   10.29681300
     The core correction contribution to forces
     atom    1 type  1   force =     0.00000000    0.00000000    0.00000000
     atom    2 type  1   force =     0.00000000    0.00000000    0.00000000
     atom    3 type  1   force =     0.00000000    0.00000000    0.00000000
     atom    4 type  1   force =     0.00000000    0.00000000    0.00000000
     The Hubbard contrib.    to forces
     atom    1 type  1   force =     0.00000000    0.00000000    0.00000000
     atom    2 type  1   force =     0.00000000    0.00000000    0.00000000
     atom    3 type  1   force =     0.00000000    0.00000000    0.00000000
     atom    4 type  1   force =     0.00000000    0.00000000    0.00000000
     The SCF correction term to forces
     atom    1 type  1   force =    -0.00008668    0.00000000    0.00199497
     atom    2 type  1   force =    -0.00012027    0.00000000    0.00219099
     atom    3 type  1   force =     0.00012027   -0.00000000   -0.00219099
     atom    4 type  1   force =     0.00008668   -0.00000000   -0.00199497

     Total force =     0.047424     Total SCF correction =     0.004196


     Computing stress (Cartesian axis) and pressure

          total   stress  (Ry/bohr**3)                   (kbar)     P=    0.31
   0.00005489   0.00000000   0.00035693          8.07      0.00     52.51
   0.00000000  -0.00001230   0.00000000          0.00     -1.81      0.00
   0.00035693   0.00000000  -0.00003629         52.51      0.00     -5.34

     kinetic stress (kbar)  18614.16      0.00    272.20
                                0.00  18468.43      0.00
                              272.20      0.00  16105.45

     local   stress (kbar) -19192.12     -0.00   1808.51
                               -0.00 -20349.77     -0.00
                             1808.51     -0.00 -12795.80

     nonloc. stress (kbar)  10670.89      0.00    125.56
                                0.00  10608.75      0.00
                              125.56      0.00   9307.60

     hartree stress (kbar)   8980.63     -0.00   -490.92
                               -0.00   9475.89      0.00
                             -490.92      0.00   2681.37

     exc-cor stress (kbar)  -4288.27      0.00     -6.73
                                0.00  -4286.46     -0.00
                               -6.73     -0.00  -4225.17

     corecor stress (kbar)      0.00      0.00      0.00
                                0.00      0.00      0.00
                                0.00      0.00      0.00

     ewald   stress (kbar) -14777.22      0.00  -1656.10
                                0.00 -13918.64      0.00
                            -1656.10      0.00 -11078.80

     hubbard stress (kbar)      0.00      0.00      0.00
                                0.00      0.00      0.00
                                0.00      0.00      0.00

     london  stress (kbar)      0.00      0.00      0.00
                                0.00      0.00      0.00
                                0.00      0.00      0.00

     DFT-D3  stress (kbar)      0.00      0.00      0.00
                                0.00      0.00      0.00
                                0.00      0.00      0.00

     XDM     stress (kbar)      0.00      0.00      0.00
                                0.00      0.00      0.00
                                0.00      0.00      0.00

     dft-nl  stress (kbar)      0.00      0.00      0.00
                                0.00      0.00      0.00
                                0.00      0.00      0.00

     TS-vdW  stress (kbar)      0.00      0.00      0.00
                                0.00      0.00      0.00
                                0.00      0.00      0.00



     BFGS Geometry Optimization

     number of scf cycles    =   1
     number of bfgs steps    =   0

     enthalpy new            =    -127.6808510689 Ry

     new trust radius        =       0.0310371416 bohr
     new conv_thr            =       0.0000010000 Ry

     new unit-cell volume =    295.49587 a.u.^3 (    43.78797 Ang^3 )
     density =      2.42693 g/cm^3

CELL_PARAMETERS (alat=  8.39374585)
   1.001372129   0.000000000   0.008923141
   0.000000000   0.554506798   0.000000000
  -0.647607270   0.000000000   0.894103010

ATOMIC_POSITIONS (crystal)
O        0.091193140   0.000000000   0.152181207
O        0.591199999   0.500000000   0.152193863
O        0.408800001   0.500000000   0.847806137
O        0.908806860   0.000000000   0.847818793



     Writing output data file O2alpha.save/
     NEW-OLD atomic charge density approx. for the potential
     extrapolated charge   24.00184, renormalised to   24.00000

     total cpu time spent up to now is        5.5 secs

     Self-consistent Calculation

     iteration #  1     ecut=    35.00 Ry     beta= 0.40
     Davidson diagonalization with overlap
     ethr =  1.00E-06,  avg # of iterations =  5.0

     total cpu time spent up to now is        6.4 secs

     total energy              =    -127.68354514 Ry
     Harris-Foulkes estimate   =    -127.67973839 Ry
     estimated scf accuracy    <       0.00023741 Ry

     iteration #  2     ecut=    35.00 Ry     beta= 0.40
     Davidson diagonalization with overlap
     ethr =  9.89E-07,  avg # of iterations =  1.0

     total cpu time spent up to now is        6.7 secs

     total energy              =    -127.68355079 Ry
     Harris-Foulkes estimate   =    -127.68355521 Ry
     estimated scf accuracy    <       0.00005942 Ry

     iteration #  3     ecut=    35.00 Ry     beta= 0.40
     Davidson diagonalization with overlap
     ethr =  2.48E-07,  avg # of iterations =  2.0

     total cpu time spent up to now is        7.1 secs

     total energy              =    -127.68353805 Ry
     Harris-Foulkes estimate   =    -127.68359108 Ry
     estimated scf accuracy    <       0.00044296 Ry

     iteration #  4     ecut=    35.00 Ry     beta= 0.40
     Davidson diagonalization with overlap
     ethr =  2.48E-07,  avg # of iterations =  1.0

     total cpu time spent up to now is        7.5 secs

     total energy              =    -127.68356757 Ry
     Harris-Foulkes estimate   =    -127.68356610 Ry
     estimated scf accuracy    <       0.00000264 Ry

     iteration #  5     ecut=    35.00 Ry     beta= 0.40
     Davidson diagonalization with overlap
     ethr =  1.10E-08,  avg # of iterations =  2.0

     total cpu time spent up to now is        8.0 secs

     End of self-consistent calculation

          k = 0.0000 0.0000 0.0000 (  1041 PWs)   bands (ev):

   -24.7310 -23.8313 -12.0595 -11.0945  -6.2725  -5.8968  -4.0111  -2.8282
    -2.2849  -2.0858   0.7431   3.8224   4.1376   4.2800  11.9099  13.2216

     occupation numbers 
     1.0000   1.0000   1.0000   1.0000   1.0000   1.0000   1.0000   1.0000
     1.0000   1.0000   1.0000   0.0000   0.0000   0.0000   0.0000   0.0000

          k =-0.0025 0.0000 0.2778 (  1037 PWs)   bands (ev):

   -24.7168 -23.8364 -12.3105 -10.9909  -6.3315  -5.3600  -4.2390  -2.8083
    -2.2891  -2.0975   0.9198   3.7710   4.1456   4.3048  10.3664  12.5953

     occupation numbers 
     1.0000   1.0000   1.0000   1.0000   1.0000   1.0000   1.0000   1.0000
     1.0000   1.0000   1.0000   0.0000   0.0000   0.0000   0.0000   0.0000

          k = 0.0050 0.0000-0.5556 (  1028 PWs)   bands (ev):

   -24.7028 -23.8417 -12.5354 -10.8827  -6.3794  -4.8196  -4.4851  -2.7886
    -2.2919  -2.1071   1.1187   3.7181   4.1543   4.3309   9.0299  13.2430

     occupation numbers 
     1.0000   1.0000   1.0000   1.0000   1.0000   1.0000   1.0000   1.0000
     1.0000   1.0000   1.0000   0.0000   0.0000   0.0000   0.0000   0.0000

          k = 0.0000 0.3006 0.0000 (  1029 PWs)   bands (ev):

   -24.5465 -23.7502 -11.8237 -10.9564  -5.9440  -5.7889  -4.0645  -3.6067
    -2.8566  -2.4383   1.0426   3.1489   3.5911   4.0188  12.1500  13.2823

     occupation numbers 
     1.0000   1.0000   1.0000   1.0000   1.0000   1.0000   1.0000   1.0000
     1.0000   1.0000   1.0000   0.1334   0.0000   0.0000   0.0000   0.0000

          k =-0.0025 0.3006 0.2778 (  1032 PWs)   bands (ev):

   -24.5336 -23.7547 -12.0537 -10.8700  -5.9994  -5.3096  -4.2518  -3.5840
    -2.8622  -2.4439   1.2046   3.0900   3.6007   4.0332  10.7282  12.7141

     occupation numbers 
     1.0000   1.0000   1.0000   1.0000   1.0000   1.0000   1.0000   1.0000
     1.0000   1.0000   1.0000   0.3093   0.0000   0.0000   0.0000   0.0000

          k = 0.0050 0.3006-0.5556 (  1032 PWs)   bands (ev):

   -24.5209 -23.7589 -12.2615 -10.7802  -6.0436  -4.8346  -4.4601  -3.5543
    -2.8605  -2.4496   1.3865   3.0239   3.5964   4.0473   9.5271  13.2733

     occupation numbers 
     1.0000   1.0000   1.0000   1.0000   1.0000   1.0000   1.0000   1.0000
     1.0000   1.0000   1.0000   0.5750   0.0000   0.0000   0.0000   0.0000

          k = 0.0000 0.6011 0.0000 (  1033 PWs)   bands (ev):

   -24.1103 -23.6291 -11.2569 -10.7119  -5.7643  -5.2471  -5.0626  -3.9535
    -3.9306  -2.9743   1.8322   1.9215   2.2352   3.5956  12.7008  13.3512

     occupation numbers 
     1.0000   1.0000   1.0000   1.0000   1.0000   1.0000   1.0000   1.0000
     1.0000   1.0000   1.0000   1.0000   1.0000   0.0000   0.0000   0.0000

          k =-0.0025 0.6011 0.2778 (  1027 PWs)   bands (ev):

   -24.1012 -23.6302 -11.4233 -10.6821  -5.5003  -5.2324  -5.1032  -3.9902
    -3.8900  -2.9855   1.8295   1.9849   2.2198   3.6309  11.6386  12.8726

     occupation numbers 
     1.0000   1.0000   1.0000   1.0000   1.0000   1.0000   1.0000   1.0000
     1.0000   1.0000   1.0000   1.0000   1.0000   0.0000   0.0000   0.0000

          k = 0.0050 0.6011-0.5556 (  1038 PWs)   bands (ev):

   -24.0927 -23.6316 -11.5769 -10.6516  -5.2779  -5.2294  -5.1407  -4.0367
    -3.7786  -2.9997   1.7755   2.0913   2.1805   3.6661  10.7748  13.0993

     occupation numbers 
     1.0000   1.0000   1.0000   1.0000   1.0000   1.0000   1.0000   1.0000
     1.0000   1.0000   1.0000   1.0000   1.0000   0.0000   0.0000   0.0000

          k = 0.0000-0.9017 0.0000 (  1036 PWs)   bands (ev):

   -23.7240 -23.7217 -10.7629 -10.7624  -5.9544  -5.9535  -4.0656  -4.0654
    -3.9345  -3.9333   1.4540   1.4543   2.8064   2.8069  13.1861  13.1897

     occupation numbers 
     1.0000   1.0000   1.0000   1.0000   1.0000   1.0000   1.0000   1.0000
     1.0000   1.0000   1.0000   1.0000   0.9929   0.9928   0.0000   0.0000

          k =-0.0025-0.9017 0.2778 (  1024 PWs)   bands (ev):

   -23.7203 -23.7180 -10.8297 -10.8293  -5.8708  -5.8697  -4.0463  -4.0458
    -3.9280  -3.9270   1.4091   1.4094   2.8836   2.8841  12.5667  12.5698

     occupation numbers 
     1.0000   1.0000   1.0000   1.0000   1.0000   1.0000   1.0000   1.0000
     1.0000   1.0000   1.0000   1.0000   0.9503   0.9498   0.0000   0.0000

          k = 0.0050-0.9017-0.5556 (  1028 PWs)   bands (ev):

   -23.7172 -23.7149 -10.8938 -10.8934  -5.8072  -5.8061  -3.9837  -3.9826
    -3.9356  -3.9353   1.3405   1.3408   2.9601   2.9606  12.2232  12.2261

     occupation numbers 
     1.0000   1.0000   1.0000   1.0000   1.0000   1.0000   1.0000   1.0000
     1.0000   1.0000   1.0000   1.0000   0.8031   0.8017   0.0000   0.0000

          k = 0.2481 0.0000 0.1797 (  1035 PWs)   bands (ev):

   -24.6053 -23.9699 -12.0116 -11.3358  -5.8824  -5.6069  -4.0353  -2.8437
    -2.7202  -2.1961   1.3082   3.7030   3.8747   4.1971  11.4256  11.6051

     occupation numbers 
     1.0000   1.0000   1.0000   1.0000   1.0000   1.0000   1.0000   1.0000
     1.0000   1.0000   1.0000   0.0000   0.0000   0.0000   0.0000   0.0000

          k = 0.2456 0.0000 0.4575 (  1038 PWs)   bands (ev):

   -24.5870 -23.9793 -12.3203 -11.1563  -6.0048  -4.9167  -4.3736  -2.8309
    -2.6942  -2.2128   1.5407   3.6636   3.8056   4.2389   9.5743  12.4901

     occupation numbers 
     1.0000   1.0000   1.0000   1.0000   1.0000   1.0000   1.0000   1.0000
     1.0000   1.0000   1.0000   0.0000   0.0000   0.0000   0.0000   0.0000

          k = 0.2530 0.0000-0.3760 (  1041 PWs)   bands (ev):

   -24.5904 -23.9833 -12.2648 -11.0842  -6.0760  -5.0407  -4.4079  -2.8187
    -2.6986  -2.2177   1.4682   3.6089   3.8174   4.2501   9.8689  13.2747

     occupation numbers 
     1.0000   1.0000   1.0000   1.0000   1.0000   1.0000   1.0000   1.0000
     1.0000   1.0000   1.0000   0.0000   0.0000   0.0000   0.0000   0.0000

          k = 0.2505 0.0000-0.0981 (  1043 PWs)   bands (ev):

   -24.6090 -23.9739 -11.9474 -11.2702  -5.9275  -5.7333  -4.0990  -2.8289
    -2.7248  -2.2004   1.2528   3.6462   3.8860   4.2087  11.7649  12.2164

     occupation numbers 
     1.0000   1.0000   1.0000   1.0000   1.0000   1.0000   1.0000   1.0000
     1.0000   1.0000   1.0000   0.0000   0.0000   0.0000   0.0000   0.0000

          k = 0.2481 0.3006 0.1797 (  1039 PWs)   bands (ev):

   -24.4336 -23.8712 -11.7816 -11.1730  -5.6962  -5.5549  -4.0055  -3.4539
    -3.2537  -2.5560   1.4660   3.1933   3.2799   3.9663  11.7098  11.8740

     occupation numbers 
     1.0000   1.0000   1.0000   1.0000   1.0000   1.0000   1.0000   1.0000
     1.0000   1.0000   1.0000   0.0581   0.0067   0.0000   0.0000   0.0000

          k = 0.2456 0.3006 0.4575 (  1037 PWs)   bands (ev):

   -24.4171 -23.8791 -12.0640 -11.0189  -5.8186  -4.9602  -4.2823  -3.4190
    -3.2308  -2.5629   1.6686   3.1734   3.2090   3.9823  10.0137  12.6434

     occupation numbers 
     1.0000   1.0000   1.0000   1.0000   1.0000   1.0000   1.0000   1.0000
     1.0000   1.0000   1.0000   0.0861   0.0414   0.0000   0.0000   0.0000

          k = 0.2530 0.3006-0.3760 (  1038 PWs)   bands (ev):

   -24.4204 -23.8829 -12.0113 -10.9528  -5.8932  -5.0614  -4.2971  -3.4335
    -3.2556  -2.5482   1.6291   3.1880   3.2048   3.9452  10.2800  13.2883

     occupation numbers 
     1.0000   1.0000   1.0000   1.0000   1.0000   1.0000   1.0000   1.0000
     1.0000   1.0000   1.0000   0.0646   0.0454   0.0000   0.0000   0.0000

          k = 0.2505 0.3006-0.0981 (  1038 PWs)   bands (ev):

   -24.4371 -23.8747 -11.7215 -11.1122  -5.7472  -5.6634  -4.0438  -3.4716
    -3.2713  -2.5412   1.4401   3.2074   3.2783   3.9268  12.0120  12.4322

     occupation numbers 
     1.0000   1.0000   1.0000   1.0000   1.0000   1.0000   1.0000   1.0000
     1.0000   1.0000   1.0000   0.0429   0.0070   0.0000   0.0000   0.0000

          k = 0.2481 0.6011 0.1797 (  1031 PWs)   bands (ev):

   -24.0379 -23.6976 -11.2407 -10.8560  -5.7781  -5.7614  -4.2040  -4.0646
    -3.8921  -2.8989   1.3678   1.8706   2.7453   3.7126  12.3527  12.4799

     occupation numbers 
     1.0000   1.0000   1.0000   1.0000   1.0000   1.0000   1.0000   1.0000
     1.0000   1.0000   1.0000   1.0000   0.9990   0.0000   0.0000   0.0000

          k = 0.2456 0.6011 0.4575 (  1023 PWs)   bands (ev):

   -24.0271 -23.7011 -11.4403 -10.7842  -5.8156  -5.5281  -4.1967  -4.0119
    -3.9063  -2.9072   1.3913   1.8514   2.7905   3.7352  11.1232  12.8082

     occupation numbers 
     1.0000   1.0000   1.0000   1.0000   1.0000   1.0000   1.0000   1.0000
     1.0000   1.0000   1.0000   1.0000   0.9955   0.0000   0.0000   0.0000

          k = 0.2530 0.6011-0.3760 (  1029 PWs)   bands (ev):

   -24.0299 -23.7040 -11.3949 -10.7323  -5.8639  -5.5616  -4.2486  -4.0043
    -3.9950  -2.8851   1.4691   1.9176   2.7054   3.6769  11.3285  13.1631

     occupation numbers 
     1.0000   1.0000   1.0000   1.0000   1.0000   1.0000   1.0000   1.0000
     1.0000   1.0000   1.0000   1.0000   0.9998   0.0000   0.0000   0.0000

          k = 0.2505 0.6011-0.0981 (  1035 PWs)   bands (ev):

   -24.0410 -23.7003 -11.1905 -10.8063  -5.8235  -5.7967  -4.2566  -4.1426
    -3.9005  -2.8769   1.4564   1.9371   2.6608   3.6544  12.5675  12.8576

     occupation numbers 
     1.0000   1.0000   1.0000   1.0000   1.0000   1.0000   1.0000   1.0000
     1.0000   1.0000   1.0000   1.0000   1.0000   0.0000   0.0000   0.0000

          k = 0.2481-0.9017 0.1797 (  1040 PWs)   bands (ev):

   -23.7188 -23.7165 -10.8120 -10.8115  -6.1766  -6.1758  -4.0935  -4.0930
    -3.4814  -3.4806   1.0767   1.0769   3.2405   3.2409  12.7766  12.7799

     occupation numbers 
     1.0000   1.0000   1.0000   1.0000   1.0000   1.0000   1.0000   1.0000
     1.0000   1.0000   1.0000   1.0000   0.0196   0.0194   0.0000   0.0000

          k = 0.2456-0.9017 0.4575 (  1022 PWs)   bands (ev):

   -23.7153 -23.7130 -10.8769 -10.8764  -6.1195  -6.1186  -4.0199  -4.0194
    -3.4990  -3.4982   1.0462   1.0464   3.2960   3.2963  12.3178  12.3208

     occupation numbers 
     1.0000   1.0000   1.0000   1.0000   1.0000   1.0000   1.0000   1.0000
     1.0000   1.0000   1.0000   1.0000   0.0042   0.0041   0.0000   0.0000

          k = 0.2530-0.9017-0.3760 (  1022 PWs)   bands (ev):

   -23.7178 -23.7155 -10.8346 -10.8342  -6.1404  -6.1396  -4.1268  -4.1263
    -3.4600  -3.4592   1.1316   1.1319   3.2271   3.2274  12.5069  12.5100

     occupation numbers 
     1.0000   1.0000   1.0000   1.0000   1.0000   1.0000   1.0000   1.0000
     1.0000   1.0000   1.0000   1.0000   0.0273   0.0270   0.0000   0.0000

          k = 0.2505-0.9017-0.0981 (  1030 PWs)   bands (ev):

   -23.7211 -23.7188 -10.7684 -10.7680  -6.1952  -6.1944  -4.2050  -4.2045
    -3.4425  -3.4417   1.1703   1.1705   3.1701   3.1705  12.9723  12.9757

     occupation numbers 
     1.0000   1.0000   1.0000   1.0000   1.0000   1.0000   1.0000   1.0000
     1.0000   1.0000   1.0000   1.0000   0.0917   0.0911   0.0000   0.0000

          k =-0.4961 0.0000-0.3593 (  1042 PWs)   bands (ev):

   -24.2950 -24.2928 -11.7675 -11.7670  -5.2879  -5.2879  -3.8466  -3.8460
    -2.4599  -2.4583   2.5714   2.5719   4.0199   4.0200  10.9294  10.9316

     occupation numbers 
     1.0000   1.0000   1.0000   1.0000   1.0000   1.0000   1.0000   1.0000
     1.0000   1.0000   1.0000   1.0000   0.0000   0.0000   0.0000   0.0000

          k =-0.4986 0.0000-0.0815 (  1043 PWs)   bands (ev):

   -24.3079 -24.2876 -11.8759 -11.5179  -5.7232  -5.1044  -3.9311  -3.7273
    -2.4782  -2.4482   2.4177   2.6052   3.9923   4.0717  10.3068  13.0480

     occupation numbers 
     1.0000   1.0000   1.0000   1.0000   1.0000   1.0000   1.0000   1.0000
     1.0000   1.0000   1.0000   1.0000   0.0000   0.0000   0.0000   0.0000

          k =-0.4912 0.0000-0.9150 (  1042 PWs)   bands (ev):

   -24.3026 -24.3004 -11.6402 -11.6397  -5.5101  -5.5100  -3.8428  -3.8421
    -2.4690  -2.4674   2.4577   2.4582   4.0438   4.0439  11.7249  11.7273

     occupation numbers 
     1.0000   1.0000   1.0000   1.0000   1.0000   1.0000   1.0000   1.0000
     1.0000   1.0000   1.0000   1.0000   0.0000   0.0000   0.0000   0.0000

          k =-0.4961 0.3006-0.3593 (  1040 PWs)   bands (ev):

   -24.1574 -24.1552 -11.5621 -11.5617  -5.3360  -5.3359  -3.8325  -3.8322
    -3.0042  -3.0032   2.3742   2.3746   3.6331   3.6331  11.2479  11.2502

     occupation numbers 
     1.0000   1.0000   1.0000   1.0000   1.0000   1.0000   1.0000   1.0000
     1.0000   1.0000   1.0000   1.0000   0.0000   0.0000   0.0000   0.0000

          k =-0.4986 0.3006-0.0815 (  1038 PWs)   bands (ev):

   -24.1687 -24.1510 -11.6571 -11.3371  -5.6981  -5.1831  -3.9350  -3.7388
    -3.0137  -2.9896   2.2847   2.4230   3.5928   3.6434  10.6951  13.1609

     occupation numbers 
     1.0000   1.0000   1.0000   1.0000   1.0000   1.0000   1.0000   1.0000
     1.0000   1.0000   1.0000   1.0000   0.0000   0.0000   0.0000   0.0000

          k =-0.4912 0.3006-0.9150 (  1044 PWs)   bands (ev):

   -24.1644 -24.1622 -11.4434 -11.4430  -5.5157  -5.5155  -3.8745  -3.8741
    -2.9997  -2.9987   2.3451   2.3455   3.6048   3.6049  11.9620  11.9645

     occupation numbers 
     1.0000   1.0000   1.0000   1.0000   1.0000   1.0000   1.0000   1.0000
     1.0000   1.0000   1.0000   1.0000   0.0000   0.0000   0.0000   0.0000

          k =-0.4961 0.6011-0.3593 (  1026 PWs)   bands (ev):

   -23.8670 -23.8648 -11.1109 -11.1104  -5.8784  -5.8778  -4.0242  -4.0238
    -3.2336  -3.2331   1.4132   1.4133   3.4967   3.4970  11.9782  11.9809

     occupation numbers 
     1.0000   1.0000   1.0000   1.0000   1.0000   1.0000   1.0000   1.0000
     1.0000   1.0000   1.0000   1.0000   0.0000   0.0000   0.0000   0.0000

          k =-0.4986 0.6011-0.0815 (  1031 PWs)   bands (ev):

   -23.8743 -23.8636 -11.1586 -10.9598  -6.0181  -5.8313  -4.1919  -3.9913
    -3.2182  -3.2056   1.4473   1.4630   3.4341   3.4549  11.6750  13.2093

     occupation numbers 
     1.0000   1.0000   1.0000   1.0000   1.0000   1.0000   1.0000   1.0000
     1.0000   1.0000   1.0000   1.0000   0.0000   0.0000   0.0000   0.0000

          k =-0.4912 0.6011-0.9150 (  1030 PWs)   bands (ev):

   -23.8727 -23.8705 -11.0125 -11.0120  -5.9445  -5.9439  -4.1953  -4.1948
    -3.1910  -3.1905   1.5267   1.5268   3.3905   3.3908  12.4869  12.4898

     occupation numbers 
     1.0000   1.0000   1.0000   1.0000   1.0000   1.0000   1.0000   1.0000
     1.0000   1.0000   1.0000   1.0000   0.0001   0.0001   0.0000   0.0000

          k =-0.4961-0.9017-0.3593 (  1032 PWs)   bands (ev):

   -23.7136 -23.7113 -10.8599 -10.8595  -6.3554  -6.3547  -4.0416  -4.0411
    -3.1510  -3.1503   0.8213   0.8215   3.5614   3.5617  12.4142  12.4173

     occupation numbers 
     1.0000   1.0000   1.0000   1.0000   1.0000   1.0000   1.0000   1.0000
     1.0000   1.0000   1.0000   1.0000   0.0000   0.0000   0.0000   0.0000

          k =-0.4986-0.9017-0.0815 (  1016 PWs)   bands (ev):

   -23.7161 -23.7138 -10.8168 -10.8164  -6.3824  -6.3817  -4.1152  -4.1148
    -3.1315  -3.1308   0.8756   0.8757   3.5085   3.5089  12.7147  12.7180

     occupation numbers 
     1.0000   1.0000   1.0000   1.0000   1.0000   1.0000   1.0000   1.0000
     1.0000   1.0000   1.0000   1.0000   0.0000   0.0000   0.0000   0.0000

          k =-0.4912-0.9017-0.9150 (  1028 PWs)   bands (ev):

   -23.7185 -23.7162 -10.7740 -10.7736  -6.3917  -6.3911  -4.2245  -4.2241
    -3.1125  -3.1118   0.9663   0.9664   3.4556   3.4559  12.7823  12.7855

     occupation numbers 
     1.0000   1.0000   1.0000   1.0000   1.0000   1.0000   1.0000   1.0000
     1.0000   1.0000   1.0000   1.0000   0.0000   0.0000   0.0000   0.0000

     the Fermi energy is     3.0421 ev

!    total energy              =    -127.68356845 Ry
     Harris-Foulkes estimate   =    -127.68356798 Ry
     estimated scf accuracy    <       0.00000028 Ry

     The total energy is the sum of the following terms:

     one-electron contribution =     -63.82084771 Ry
     hartree contribution      =      42.79278640 Ry
     xc contribution           =     -27.20290676 Ry
     ewald contribution        =     -79.45146552 Ry
     smearing contrib. (-TS)   =      -0.00113485 Ry

     convergence has been achieved in   5 iterations

     Forces acting on atoms (cartesian axes, Ry/au):

     atom    1 type  1   force =     0.01106352   -0.00000000    0.02200386
     atom    2 type  1   force =     0.01103900    0.00000000    0.02213743
     atom    3 type  1   force =    -0.01103900    0.00000000   -0.02213743
     atom    4 type  1   force =    -0.01106352   -0.00000000   -0.02200386
     The non-local contrib.  to forces
     atom    1 type  1   force =     0.17708717    0.00000000   -3.15508459
     atom    2 type  1   force =     0.17704362    0.00000000   -3.15441559
     atom    3 type  1   force =    -0.17704362    0.00000000    3.15441559
     atom    4 type  1   force =    -0.17708717    0.00000000    3.15508459
     The ionic contribution  to forces
     atom    1 type  1   force =    -0.50473626   -0.00000000   13.65659672
     atom    2 type  1   force =    -0.50463315    0.00000000   13.65436826
     atom    3 type  1   force =     0.50463315    0.00000000  -13.65436826
     atom    4 type  1   force =     0.50473626   -0.00000000  -13.65659672
     The local contribution  to forces
     atom    1 type  1   force =     0.33880634   -0.00000000  -10.47933148
     atom    2 type  1   force =     0.33879196   -0.00000000  -10.47808449
     atom    3 type  1   force =    -0.33879196    0.00000000   10.47808449
     atom    4 type  1   force =    -0.33880634   -0.00000000   10.47933148
     The core correction contribution to forces
     atom    1 type  1   force =     0.00000000    0.00000000    0.00000000
     atom    2 type  1   force =     0.00000000    0.00000000    0.00000000
     atom    3 type  1   force =     0.00000000    0.00000000    0.00000000
     atom    4 type  1   force =     0.00000000    0.00000000    0.00000000
     The Hubbard contrib.    to forces
     atom    1 type  1   force =     0.00000000    0.00000000    0.00000000
     atom    2 type  1   force =     0.00000000    0.00000000    0.00000000
     atom    3 type  1   force =     0.00000000    0.00000000    0.00000000
     atom    4 type  1   force =     0.00000000    0.00000000    0.00000000
     The SCF correction term to forces
     atom    1 type  1   force =    -0.00009373   -0.00000000   -0.00017679
     atom    2 type  1   force =    -0.00016343   -0.00000000    0.00026926
     atom    3 type  1   force =     0.00016343   -0.00000000   -0.00026926
     atom    4 type  1   force =     0.00009373   -0.00000000    0.00017679

     Total force =     0.049366     Total SCF correction =     0.000528


     Computing stress (Cartesian axis) and pressure

          total   stress  (Ry/bohr**3)                   (kbar)     P=   19.73
   0.00002316   0.00000000   0.00017603          3.41      0.00     25.90
   0.00000000  -0.00003157   0.00000000          0.00     -4.64      0.00
   0.00017603   0.00000000   0.00041085         25.90      0.00     60.44

     kinetic stress (kbar)  18642.75      0.00    168.73
                                0.00  18486.88      0.00
                              168.73      0.00  16137.78

     local   stress (kbar) -19117.15      0.00    990.75
                                0.00 -20496.35     -0.00
                              990.75     -0.00 -13116.64

     nonloc. stress (kbar)  10679.34      0.00     80.88
                                0.00  10611.37      0.00
                               80.88      0.00   9295.14

     hartree stress (kbar)   8995.46     -0.00   -230.48
                               -0.00   9565.57      0.00
                             -230.48      0.00   2742.26

     exc-cor stress (kbar)  -4293.78     -0.00     -4.30
                               -0.00  -4291.52     -0.00
                               -4.30     -0.00  -4229.01

     corecor stress (kbar)      0.00      0.00      0.00
                                0.00      0.00      0.00
                                0.00      0.00      0.00

     ewald   stress (kbar) -14903.20     -0.00   -979.69
                               -0.00 -13880.59      0.00
                             -979.69      0.00 -10769.08

     hubbard stress (kbar)      0.00      0.00      0.00
                                0.00      0.00      0.00
                                0.00      0.00      0.00

     london  stress (kbar)      0.00      0.00      0.00
                                0.00      0.00      0.00
                                0.00      0.00      0.00

     DFT-D3  stress (kbar)      0.00      0.00      0.00
                                0.00      0.00      0.00
                                0.00      0.00      0.00

     XDM     stress (kbar)      0.00      0.00      0.00
                                0.00      0.00      0.00
                                0.00      0.00      0.00

     dft-nl  stress (kbar)      0.00      0.00      0.00
                                0.00      0.00      0.00
                                0.00      0.00      0.00

     TS-vdW  stress (kbar)      0.00      0.00      0.00
                                0.00      0.00      0.00
                                0.00      0.00      0.00



     number of scf cycles    =   2
     number of bfgs steps    =   1

     enthalpy old            =    -127.6808510689 Ry
     enthalpy new            =    -127.6835684510 Ry

     CASE: enthalpy_new < enthalpy_old

     new trust radius        =       0.0915239358 bohr
     new conv_thr            =       0.0000002214 Ry

     new unit-cell volume =    299.61053 a.u.^3 (    44.39770 Ang^3 )
     density =      2.39360 g/cm^3

CELL_PARAMETERS (alat=  8.39374585)
   1.004788670   0.000000000   0.032305059
   0.000000000   0.553541579   0.000000000
  -0.628655998   0.000000000   0.890675325

ATOMIC_POSITIONS (crystal)
O        0.100143465  -0.000000000   0.154868532
O        0.600176237   0.500000000   0.154931139
O        0.399823763   0.500000000   0.845068861
O        0.899856535  -0.000000000   0.845131468



     Writing output data file O2alpha.save/
     NEW-OLD atomic charge density approx. for the potential
     extrapolated charge   24.32960, renormalised to   24.00000

     total cpu time spent up to now is        8.5 secs

     Self-consistent Calculation

     iteration #  1     ecut=    35.00 Ry     beta= 0.40
     Davidson diagonalization with overlap
     ethr =  1.00E-06,  avg # of iterations =  5.9

     total cpu time spent up to now is        9.5 secs

     total energy              =    -127.66403015 Ry
     Harris-Foulkes estimate   =    -127.00754405 Ry
     estimated scf accuracy    <       0.01659820 Ry

     iteration #  2     ecut=    35.00 Ry     beta= 0.40
     Davidson diagonalization with overlap
     ethr =  6.92E-05,  avg # of iterations =  3.0

     total cpu time spent up to now is       10.1 secs

     total energy              =    -127.67950075 Ry
     Harris-Foulkes estimate   =    -127.68128533 Ry
     estimated scf accuracy    <       0.00552348 Ry

     iteration #  3     ecut=    35.00 Ry     beta= 0.40
     Davidson diagonalization with overlap
     ethr =  2.30E-05,  avg # of iterations =  1.0

     total cpu time spent up to now is       10.5 secs

     total energy              =    -127.67940484 Ry
     Harris-Foulkes estimate   =    -127.67978829 Ry
     estimated scf accuracy    <       0.00200847 Ry

     iteration #  4     ecut=    35.00 Ry     beta= 0.40
     Davidson diagonalization with overlap
     ethr =  8.37E-06,  avg # of iterations =  1.3

     total cpu time spent up to now is       10.8 secs

     total energy              =    -127.67892516 Ry
     Harris-Foulkes estimate   =    -127.67966702 Ry
     estimated scf accuracy    <       0.00241968 Ry

     iteration #  5     ecut=    35.00 Ry     beta= 0.40
     Davidson diagonalization with overlap
     ethr =  8.37E-06,  avg # of iterations =  2.7

     total cpu time spent up to now is       11.3 secs

     total energy              =    -127.67928697 Ry
     Harris-Foulkes estimate   =    -127.67938555 Ry
     estimated scf accuracy    <       0.00019761 Ry

     iteration #  6     ecut=    35.00 Ry     beta= 0.40
     Davidson diagonalization with overlap
     ethr =  8.23E-07,  avg # of iterations =  2.0

     total cpu time spent up to now is       11.8 secs

     total energy              =    -127.67930809 Ry
     Harris-Foulkes estimate   =    -127.67931355 Ry
     estimated scf accuracy    <       0.00001083 Ry

     iteration #  7     ecut=    35.00 Ry     beta= 0.40
     Davidson diagonalization with overlap
     ethr =  4.51E-08,  avg # of iterations =  2.8

     total cpu time spent up to now is       12.3 secs

     total energy              =    -127.67931207 Ry
     Harris-Foulkes estimate   =    -127.67931377 Ry
     estimated scf accuracy    <       0.00000401 Ry

     iteration #  8     ecut=    35.00 Ry     beta= 0.40
     Davidson diagonalization with overlap
     ethr =  1.67E-08,  avg # of iterations =  2.0

     total cpu time spent up to now is       12.8 secs

     total energy              =    -127.67931260 Ry
     Harris-Foulkes estimate   =    -127.67931257 Ry
     estimated scf accuracy    <       0.00000022 Ry

     iteration #  9     ecut=    35.00 Ry     beta= 0.40
     Davidson diagonalization with overlap
     ethr =  9.32E-10,  avg # of iterations =  2.0

     total cpu time spent up to now is       13.2 secs

     End of self-consistent calculation

          k = 0.0000 0.0000 0.0000 (  1041 PWs)   bands (ev):

   -24.0557 -23.1112 -12.4353 -11.4863  -6.0469  -5.8485  -4.0423  -2.5122
    -2.0117  -1.7759   0.4617   3.4853   3.7548   3.9294  10.8277  11.8093

     occupation numbers 
     1.0000   1.0000   1.0000   1.0000   1.0000   1.0000   1.0000   1.0000
     1.0000   1.0000   1.0000   0.0000   0.0000   0.0000   0.0000   0.0000

          k =-0.0088 0.0000 0.2745 (  1037 PWs)   bands (ev):

   -24.0395 -23.1185 -12.6695 -11.3853  -6.0935  -5.3206  -4.2568  -2.4919
    -2.0144  -1.7888   0.5864   3.4370   3.7614   3.9546   9.5231  11.3160

     occupation numbers 
     1.0000   1.0000   1.0000   1.0000   1.0000   1.0000   1.0000   1.0000
     1.0000   1.0000   1.0000   0.0000   0.0000   0.0000   0.0000   0.0000

          k = 0.0176 0.0000-0.5489 (  1028 PWs)   bands (ev):

   -24.0234 -23.1256 -12.8821 -11.2804  -6.1242  -4.7816  -4.4984  -2.4716
    -2.0167  -1.7998   0.7385   3.3873   3.7696   3.9808   8.2209  11.6978

     occupation numbers 
     1.0000   1.0000   1.0000   1.0000   1.0000   1.0000   1.0000   1.0000
     1.0000   1.0000   1.0000   0.0000   0.0000   0.0000   0.0000   0.0000

          k = 0.0000 0.3011 0.0000 (  1029 PWs)   bands (ev):

   -23.8597 -23.0225 -12.1988 -11.3460  -5.7182  -5.7115  -4.0351  -3.3763
    -2.6035  -2.1617   0.7530   2.8033   3.2340   3.6426  11.0276  11.8710

     occupation numbers 
     1.0000   1.0000   1.0000   1.0000   1.0000   1.0000   1.0000   1.0000
     1.0000   1.0000   1.0000   0.1245   0.0000   0.0000   0.0000   0.0000

          k =-0.0088 0.3011 0.2745 (  1032 PWs)   bands (ev):

   -23.8451 -23.0287 -12.4132 -11.2610  -5.7563  -5.2416  -4.2274  -3.3388
    -2.6169  -2.1666   0.8700   2.7505   3.2445   3.6565   9.8449  11.4213

     occupation numbers 
     1.0000   1.0000   1.0000   1.0000   1.0000   1.0000   1.0000   1.0000
     1.0000   1.0000   1.0000   0.2728   0.0000   0.0000   0.0000   0.0000

          k = 0.0176 0.3011-0.5489 (  1032 PWs)   bands (ev):

   -23.8306 -23.0346 -12.6091 -11.1731  -5.7854  -4.7594  -4.4414  -3.3003
    -2.6264  -2.1713   1.0108   2.6895   3.2434   3.6676   8.6802  11.7520

     occupation numbers 
     1.0000   1.0000   1.0000   1.0000   1.0000   1.0000   1.0000   1.0000
     1.0000   1.0000   1.0000   0.5120   0.0000   0.0000   0.0000   0.0000

          k = 0.0000 0.6022 0.0000 (  1033 PWs)   bands (ev):

   -23.3954 -22.8871 -11.6311 -11.0954  -5.5980  -4.9993  -4.8115  -3.9513
    -3.8547  -2.6946   1.5216   1.5593   1.8663   3.2361  11.4764  11.9576

     occupation numbers 
     1.0000   1.0000   1.0000   1.0000   1.0000   1.0000   1.0000   1.0000
     1.0000   1.0000   1.0000   1.0000   1.0000   0.0000   0.0000   0.0000

          k =-0.0088 0.6022 0.2745 (  1027 PWs)   bands (ev):

   -23.3852 -22.8892 -11.7851 -11.0634  -5.3125  -4.9902  -4.8432  -4.0077
    -3.8220  -2.7057   1.4696   1.6540   1.8568   3.2685  10.6231  11.5688

     occupation numbers 
     1.0000   1.0000   1.0000   1.0000   1.0000   1.0000   1.0000   1.0000
     1.0000   1.0000   1.0000   1.0000   1.0000   0.0000   0.0000   0.0000

          k = 0.0176 0.6022-0.5489 (  1038 PWs)   bands (ev):

   -23.3755 -22.8916 -11.9287 -11.0307  -5.0616  -4.9944  -4.8748  -4.0456
    -3.7457  -2.7188   1.4324   1.7244   1.8248   3.2966   9.8018  11.6804

     occupation numbers 
     1.0000   1.0000   1.0000   1.0000   1.0000   1.0000   1.0000   1.0000
     1.0000   1.0000   1.0000   1.0000   1.0000   0.0000   0.0000   0.0000

          k = 0.0000-0.9033 0.0000 (  1036 PWs)   bands (ev):

   -22.9895 -22.9756 -11.1397 -11.1390  -5.7333  -5.7279  -4.0632  -4.0609
    -3.6663  -3.6591   1.0813   1.0817   2.4704   2.4710  11.8486  11.8621

     occupation numbers 
     1.0000   1.0000   1.0000   1.0000   1.0000   1.0000   1.0000   1.0000
     1.0000   1.0000   1.0000   1.0000   0.9895   0.9893   0.0000   0.0000

          k =-0.0088-0.9033 0.2745 (  1024 PWs)   bands (ev):

   -22.9857 -22.9718 -11.1992 -11.1984  -5.6442  -5.6382  -4.0306  -4.0275
    -3.6845  -3.6774   1.0458   1.0463   2.5364   2.5370  11.3491  11.3613

     occupation numbers 
     1.0000   1.0000   1.0000   1.0000   1.0000   1.0000   1.0000   1.0000
     1.0000   1.0000   1.0000   1.0000   0.9475   0.9468   0.0000   0.0000

          k = 0.0176-0.9033-0.5489 (  1028 PWs)   bands (ev):

   -22.9824 -22.9685 -11.2565 -11.2557  -5.5780  -5.5714  -3.9545  -3.9509
    -3.7113  -3.7042   0.9885   0.9889   2.5968   2.5974  11.0174  11.0291

     occupation numbers 
     1.0000   1.0000   1.0000   1.0000   1.0000   1.0000   1.0000   1.0000
     1.0000   1.0000   1.0000   1.0000   0.8396   0.8382   0.0000   0.0000

          k = 0.2433 0.0000 0.1717 (  1035 PWs)   bands (ev):

   -23.9248 -23.2580 -12.3772 -11.7162  -5.6323  -5.5475  -4.0596  -2.6106
    -2.4057  -1.8858   0.9686   3.3044   3.5381   3.8506  10.3461  10.6225

     occupation numbers 
     1.0000   1.0000   1.0000   1.0000   1.0000   1.0000   1.0000   1.0000
     1.0000   1.0000   1.0000   0.0000   0.0000   0.0000   0.0000   0.0000

          k = 0.2345 0.0000 0.4462 (  1038 PWs)   bands (ev):

   -23.9036 -23.2702 -12.6699 -11.5410  -5.7409  -4.8540  -4.3944  -2.6016
    -2.3788  -1.9042   1.1494   3.2667   3.4726   3.8925   8.7286  11.1606

     occupation numbers 
     1.0000   1.0000   1.0000   1.0000   1.0000   1.0000   1.0000   1.0000
     1.0000   1.0000   1.0000   0.0000   0.0000   0.0000   0.0000   0.0000

          k = 0.2609 0.0000-0.3772 (  1041 PWs)   bands (ev):

   -23.9066 -23.2737 -12.6259 -11.4800  -5.8558  -4.9875  -4.3906  -2.5728
    -2.3822  -1.9082   1.1267   3.2603   3.4816   3.9012   9.0293  11.8649

     occupation numbers 
     1.0000   1.0000   1.0000   1.0000   1.0000   1.0000   1.0000   1.0000
     1.0000   1.0000   1.0000   0.0000   0.0000   0.0000   0.0000   0.0000

          k = 0.2521 0.0000-0.1027 (  1043 PWs)   bands (ev):

   -23.9280 -23.2615 -12.3268 -11.6604  -5.7162  -5.6746  -4.0926  -2.5837
    -2.4094  -1.8892   0.9629   3.2880   3.5467   3.8598  10.7579  11.2851

     occupation numbers 
     1.0000   1.0000   1.0000   1.0000   1.0000   1.0000   1.0000   1.0000
     1.0000   1.0000   1.0000   0.0000   0.0000   0.0000   0.0000   0.0000

          k = 0.2433 0.3011 0.1717 (  1039 PWs)   bands (ev):

   -23.7420 -23.1507 -12.1475 -11.5522  -5.4621  -5.4412  -4.0031  -3.1920
    -3.0490  -2.2762   1.1272   2.8240   2.9350   3.5931  10.5895  10.8345

     occupation numbers 
     1.0000   1.0000   1.0000   1.0000   1.0000   1.0000   1.0000   1.0000
     1.0000   1.0000   1.0000   0.0856   0.0058   0.0000   0.0000   0.0000

          k = 0.2345 0.3011 0.4462 (  1037 PWs)   bands (ev):

   -23.7230 -23.1610 -12.4147 -11.4012  -5.5547  -4.8504  -4.2804  -3.1503
    -3.0467  -2.2835   1.2851   2.8057   2.8687   3.6101   9.1242  11.2881

     occupation numbers 
     1.0000   1.0000   1.0000   1.0000   1.0000   1.0000   1.0000   1.0000
     1.0000   1.0000   1.0000   0.1193   0.0334   0.0000   0.0000   0.0000

          k = 0.2609 0.3011-0.3772 (  1038 PWs)   bands (ev):

   -23.7258 -23.1645 -12.3723 -11.3448  -5.6698  -4.9701  -4.2662  -3.1602
    -3.0476  -2.2691   1.2923   2.8578   2.8594   3.5716   9.4084  11.8911

     occupation numbers 
     1.0000   1.0000   1.0000   1.0000   1.0000   1.0000   1.0000   1.0000
     1.0000   1.0000   1.0000   0.0428   0.0412   0.0000   0.0000   0.0000

          k = 0.2521 0.3011-0.1027 (  1038 PWs)   bands (ev):

   -23.7450 -23.1537 -12.0996 -11.4999  -5.5786  -5.5290  -4.0223  -3.2013
    -3.0491  -2.2621   1.1489   2.8670   2.9268   3.5550  10.9647  11.4323

     occupation numbers 
     1.0000   1.0000   1.0000   1.0000   1.0000   1.0000   1.0000   1.0000
     1.0000   1.0000   1.0000   0.0348   0.0074   0.0000   0.0000   0.0000

          k = 0.2433 0.6022 0.1717 (  1031 PWs)   bands (ev):

   -23.3195 -22.9599 -11.6081 -11.2317  -5.5647  -5.5036  -4.0311  -4.0174
    -3.8267  -2.6241   1.0216   1.5079   2.3901   3.3402  11.1255  11.2815

     occupation numbers 
     1.0000   1.0000   1.0000   1.0000   1.0000   1.0000   1.0000   1.0000
     1.0000   1.0000   1.0000   1.0000   0.9992   0.0000   0.0000   0.0000

          k = 0.2345 0.6022 0.4462 (  1023 PWs)   bands (ev):

   -23.3071 -22.9648 -11.7954 -11.1593  -5.5589  -5.2856  -4.0580  -3.9044
    -3.8947  -2.6322   1.0356   1.4942   2.4223   3.3597  10.0952  11.4362

     occupation numbers 
     1.0000   1.0000   1.0000   1.0000   1.0000   1.0000   1.0000   1.0000
     1.0000   1.0000   1.0000   1.0000   0.9975   0.0000   0.0000   0.0000

          k = 0.2609 0.6022-0.3772 (  1029 PWs)   bands (ev):

   -23.3095 -22.9674 -11.7569 -11.1134  -5.6270  -5.3411  -4.1546  -3.9634
    -3.8444  -2.6117   1.1417   1.5808   2.3391   3.3044  10.3438  11.8237

     occupation numbers 
     1.0000   1.0000   1.0000   1.0000   1.0000   1.0000   1.0000   1.0000
     1.0000   1.0000   1.0000   1.0000   0.9999   0.0000   0.0000   0.0000

          k = 0.2521 0.6022-0.1027 (  1035 PWs)   bands (ev):

   -23.3222 -22.9623 -11.5659 -11.1876  -5.6315  -5.5571  -4.1416  -4.0734
    -3.7714  -2.6036   1.1435   1.5909   2.3012   3.2850  11.4174  11.7031

     occupation numbers 
     1.0000   1.0000   1.0000   1.0000   1.0000   1.0000   1.0000   1.0000
     1.0000   1.0000   1.0000   1.0000   1.0000   0.0000   0.0000   0.0000

          k = 0.2433-0.9033 0.1717 (  1040 PWs)   bands (ev):

   -22.9841 -22.9703 -11.1833 -11.1825  -5.9386  -5.9339  -4.0931  -4.0892
    -3.2218  -3.2168   0.7159   0.7161   2.8804   2.8808  11.4662  11.4788

     occupation numbers 
     1.0000   1.0000   1.0000   1.0000   1.0000   1.0000   1.0000   1.0000
     1.0000   1.0000   1.0000   1.0000   0.0253   0.0250   0.0000   0.0000

          k = 0.2345-0.9033 0.4462 (  1022 PWs)   bands (ev):

   -22.9805 -22.9667 -11.2412 -11.2404  -5.8799  -5.8749  -4.0219  -4.0177
    -3.2417  -3.2367   0.6904   0.6908   2.9253   2.9257  11.0685  11.0804

     occupation numbers 
     1.0000   1.0000   1.0000   1.0000   1.0000   1.0000   1.0000   1.0000
     1.0000   1.0000   1.0000   1.0000   0.0077   0.0076   0.0000   0.0000

          k = 0.2609-0.9033-0.3772 (  1022 PWs)   bands (ev):

   -22.9828 -22.9689 -11.2032 -11.2024  -5.9128  -5.9079  -4.1215  -4.1174
    -3.2103  -3.2053   0.7943   0.7946   2.8595   2.8600  11.3196  11.3318

     occupation numbers 
     1.0000   1.0000   1.0000   1.0000   1.0000   1.0000   1.0000   1.0000
     1.0000   1.0000   1.0000   1.0000   0.0411   0.0407   0.0000   0.0000

          k = 0.2521-0.9033-0.1027 (  1030 PWs)   bands (ev):

   -22.9862 -22.9724 -11.1442 -11.1434  -5.9702  -5.9656  -4.1961  -4.1922
    -3.1894  -3.1845   0.8267   0.8270   2.8119   2.8123  11.7402  11.7533

     occupation numbers 
     1.0000   1.0000   1.0000   1.0000   1.0000   1.0000   1.0000   1.0000
     1.0000   1.0000   1.0000   1.0000   0.1071   0.1061   0.0000   0.0000

          k =-0.4866 0.0000-0.3434 (  1042 PWs)   bands (ev):

   -23.6057 -23.5925 -12.1298 -12.1289  -5.1126  -5.1108  -3.7669  -3.7626
    -2.1514  -2.1431   2.1669   2.1676   3.6809   3.6809   9.9196   9.9289

     occupation numbers 
     1.0000   1.0000   1.0000   1.0000   1.0000   1.0000   1.0000   1.0000
     1.0000   1.0000   1.0000   1.0000   0.0000   0.0000   0.0000   0.0000

          k =-0.4954 0.0000-0.0690 (  1043 PWs)   bands (ev):

   -23.6163 -23.5886 -12.2436 -11.8998  -5.5934  -4.9424  -3.7979  -3.6301
    -2.1669  -2.1339   2.0782   2.2323   3.6517   3.7286   9.3947  11.6771

     occupation numbers 
     1.0000   1.0000   1.0000   1.0000   1.0000   1.0000   1.0000   1.0000
     1.0000   1.0000   1.0000   1.0000   0.0000   0.0000   0.0000   0.0000

          k =-0.4689 0.0000-0.8923 (  1042 PWs)   bands (ev):

   -23.6123 -23.5991 -12.0263 -12.0254  -5.3977  -5.3957  -3.6949  -3.6901
    -2.1588  -2.1505   2.1418   2.1425   3.6995   3.6995  10.8043  10.8150

     occupation numbers 
     1.0000   1.0000   1.0000   1.0000   1.0000   1.0000   1.0000   1.0000
     1.0000   1.0000   1.0000   1.0000   0.0000   0.0000   0.0000   0.0000

          k =-0.4866 0.3011-0.3434 (  1040 PWs)   bands (ev):

   -23.4581 -23.4447 -11.9251 -11.9242  -5.1287  -5.1267  -3.7743  -3.7723
    -2.7253  -2.7200   1.9897   1.9902   3.2759   3.2760  10.1868  10.1965

     occupation numbers 
     1.0000   1.0000   1.0000   1.0000   1.0000   1.0000   1.0000   1.0000
     1.0000   1.0000   1.0000   1.0000   0.0000   0.0000   0.0000   0.0000

          k =-0.4954 0.3011-0.0690 (  1038 PWs)   bands (ev):

   -23.4670 -23.4419 -12.0245 -11.7174  -5.5385  -4.9875  -3.8243  -3.6692
    -2.7330  -2.7067   1.9552   2.0652   3.2340   3.2835   9.7451  11.7533

     occupation numbers 
     1.0000   1.0000   1.0000   1.0000   1.0000   1.0000   1.0000   1.0000
     1.0000   1.0000   1.0000   1.0000   0.0000   0.0000   0.0000   0.0000

[...]
     1.0000   1.0000   1.0000   1.0000   0.8364   0.8363   0.0000   0.0000

          k = 0.2332 0.0000 0.1489 (  1036 PWs)   bands (ev):

   -24.4972 -23.8420 -12.0768 -11.3809  -5.9088  -5.7046  -4.0581  -2.7737
    -2.6036  -2.0795   1.1528   3.6257   3.8555   4.1815  11.4445  11.8571

     occupation numbers 
     1.0000   1.0000   1.0000   1.0000   1.0000   1.0000   1.0000   1.0000
     1.0000   1.0000   1.0000   0.0000   0.0000   0.0000   0.0000   0.0000

          k = 0.1988 0.0000 0.4214 (  1034 PWs)   bands (ev):

   -24.4797 -23.8533 -12.3756 -11.1760  -6.0502  -5.0356  -4.4301  -2.7466
    -2.5784  -2.0978   1.3911   3.5649   3.7921   4.2265   9.5634  12.9601

     occupation numbers 
     1.0000   1.0000   1.0000   1.0000   1.0000   1.0000   1.0000   1.0000
     1.0000   1.0000   1.0000   0.0000   0.0000   0.0000   0.0000   0.0000

          k = 0.3021 0.0000-0.3962 (  1043 PWs)   bands (ev):

   -24.4779 -23.8518 -12.4023 -11.2126  -6.0030  -4.9659  -4.4216  -2.7603
    -2.5766  -2.0959   1.4221   3.5863   3.7867   4.2206   9.3957  12.4240

     occupation numbers 
     1.0000   1.0000   1.0000   1.0000   1.0000   1.0000   1.0000   1.0000
     1.0000   1.0000   1.0000   0.0000   0.0000   0.0000   0.0000   0.0000

          k = 0.2676 0.0000-0.1236 (  1043 PWs)   bands (ev):

   -24.4960 -23.8401 -12.1076 -11.4137  -5.8764  -5.6369  -4.0324  -2.7879
    -2.6009  -2.0778   1.1754   3.6501   3.8510   4.1749  11.2223  11.4704

     occupation numbers 
     1.0000   1.0000   1.0000   1.0000   1.0000   1.0000   1.0000   1.0000
     1.0000   1.0000   1.0000   0.0000   0.0000   0.0000   0.0000   0.0000

          k = 0.2332 0.3027 0.1489 (  1036 PWs)   bands (ev):

   -24.3163 -23.7355 -11.8409 -11.2138  -5.7196  -5.6300  -4.0047  -3.3849
    -3.2030  -2.4632   1.3430   3.1578   3.2213   3.8994  11.7008  12.0828

     occupation numbers 
     1.0000   1.0000   1.0000   1.0000   1.0000   1.0000   1.0000   1.0000
     1.0000   1.0000   1.0000   0.0406   0.0081   0.0000   0.0000   0.0000

          k = 0.1988 0.3027 0.4214 (  1032 PWs)   bands (ev):

   -24.3005 -23.7451 -12.1131 -11.0358  -5.8599  -5.0490  -4.3152  -3.3488
    -3.1830  -2.4667   1.5514   3.1365   3.1607   3.9055   9.9872  12.9882

     occupation numbers 
     1.0000   1.0000   1.0000   1.0000   1.0000   1.0000   1.0000   1.0000
     1.0000   1.0000   1.0000   0.0639   0.0380   0.0000   0.0000   0.0000

          k = 0.3021 0.3027-0.3962 (  1039 PWs)   bands (ev):

   -24.2990 -23.7437 -12.1384 -11.0692  -5.8112  -4.9900  -4.3163  -3.3417
    -3.1773  -2.4749   1.5642   3.1202   3.1658   3.9289   9.8325  12.5515

     occupation numbers 
     1.0000   1.0000   1.0000   1.0000   1.0000   1.0000   1.0000   1.0000
     1.0000   1.0000   1.0000   0.0880   0.0339   0.0000   0.0000   0.0000

          k = 0.2676 0.3027-0.1236 (  1048 PWs)   bands (ev):

   -24.3151 -23.7339 -11.8697 -11.2442  -5.6845  -5.5704  -3.9918  -3.3758
    -3.2002  -2.4720   1.3492   3.1432   3.2255   3.9237  11.5006  11.7280

     occupation numbers 
     1.0000   1.0000   1.0000   1.0000   1.0000   1.0000   1.0000   1.0000
     1.0000   1.0000   1.0000   0.0557   0.0072   0.0000   0.0000   0.0000

          k = 0.2332 0.6053 0.1489 (  1025 PWs)   bands (ev):

   -23.8987 -23.5460 -11.2847 -10.8875  -5.7944  -5.7707  -4.2030  -4.1020
    -3.8636  -2.8094   1.3401   1.8295   2.5904   3.6240  12.2753  12.5420

     occupation numbers 
     1.0000   1.0000   1.0000   1.0000   1.0000   1.0000   1.0000   1.0000
     1.0000   1.0000   1.0000   1.0000   1.0000   0.0000   0.0000   0.0000

          k = 0.1988 0.6053 0.4214 (  1032 PWs)   bands (ev):

   -23.8884 -23.5510 -11.4735 -10.7967  -5.8377  -5.5444  -4.2011  -4.0083
    -3.9681  -2.8146   1.3629   1.8229   2.6532   3.6360  11.0648  12.8903

     occupation numbers 
     1.0000   1.0000   1.0000   1.0000   1.0000   1.0000   1.0000   1.0000
     1.0000   1.0000   1.0000   1.0000   0.9998   0.0000   0.0000   0.0000

          k = 0.3021 0.6053-0.3962 (  1039 PWs)   bands (ev):

   -23.8871 -23.5498 -11.4957 -10.8229  -5.8073  -5.5220  -4.1659  -4.0246
    -3.9261  -2.8274   1.3126   1.7815   2.7031   3.6699  10.9372  12.6532

     occupation numbers 
     1.0000   1.0000   1.0000   1.0000   1.0000   1.0000   1.0000   1.0000
     1.0000   1.0000   1.0000   1.0000   0.9986   0.0000   0.0000   0.0000

          k = 0.2676 0.6053-0.1236 (  1026 PWs)   bands (ev):

   -23.8975 -23.5447 -11.3090 -10.9123  -5.7661  -5.7473  -4.1720  -4.0659
    -3.8666  -2.8220   1.2824   1.7891   2.6425   3.6581  12.1277  12.2945

     occupation numbers 
     1.0000   1.0000   1.0000   1.0000   1.0000   1.0000   1.0000   1.0000
     1.0000   1.0000   1.0000   1.0000   0.9998   0.0000   0.0000   0.0000

          k = 0.2332-0.9080 0.1489 (  1032 PWs)   bands (ev):

   -23.5619 -23.5616 -10.8423 -10.8423  -6.1892  -6.1891  -4.1549  -4.1548
    -3.3884  -3.3882   1.0311   1.0312   3.1226   3.1226  12.6841  12.6844

     occupation numbers 
     1.0000   1.0000   1.0000   1.0000   1.0000   1.0000   1.0000   1.0000
     1.0000   1.0000   1.0000   1.0000   0.0841   0.0840   0.0000   0.0000

          k = 0.1988-0.9080 0.4214 (  1034 PWs)   bands (ev):

   -23.5594 -23.5591 -10.8934 -10.8933  -6.1396  -6.1395  -4.0980  -4.0978
    -3.4139  -3.4138   1.0097   1.0098   3.1823   3.1824  12.2564  12.2565

     occupation numbers 
     1.0000   1.0000   1.0000   1.0000   1.0000   1.0000   1.0000   1.0000
     1.0000   1.0000   1.0000   1.0000   0.0228   0.0228   0.0000   0.0000

          k = 0.3021-0.9080-0.3962 (  1038 PWs)   bands (ev):

   -23.5583 -23.5579 -10.9144 -10.9143  -6.1256  -6.1255  -4.0439  -4.0437
    -3.4345  -3.4344   0.9576   0.9576   3.2226   3.2227  12.1301  12.1303

     occupation numbers 
     1.0000   1.0000   1.0000   1.0000   1.0000   1.0000   1.0000   1.0000
     1.0000   1.0000   1.0000   1.0000   0.0078   0.0078   0.0000   0.0000

          k = 0.2676-0.9080-0.1236 (  1022 PWs)   bands (ev):

   -23.5605 -23.5602 -10.8638 -10.8638  -6.1760  -6.1759  -4.0976  -4.0974
    -3.4092  -3.4090   0.9752   0.9753   3.1647   3.1647  12.5473  12.5475

     occupation numbers 
     1.0000   1.0000   1.0000   1.0000   1.0000   1.0000   1.0000   1.0000
     1.0000   1.0000   1.0000   1.0000   0.0347   0.0347   0.0000   0.0000

          k =-0.4664 0.0000-0.2978 (  1038 PWs)   bands (ev):

   -24.1801 -24.1798 -11.7689 -11.7689  -5.4540  -5.4539  -3.8176  -3.8175
    -2.3467  -2.3466   2.4109   2.4109   4.0135   4.0137  11.3296  11.3297

     occupation numbers 
     1.0000   1.0000   1.0000   1.0000   1.0000   1.0000   1.0000   1.0000
     1.0000   1.0000   1.0000   1.0000   0.0000   0.0000   0.0000   0.0000

          k =-0.5008 0.0000-0.0253 (  1047 PWs)   bands (ev):

   -24.1887 -24.1679 -11.9732 -11.6121  -5.7133  -5.0949  -3.9324  -3.6893
    -2.3592  -2.3290   2.3197   2.5454   3.9695   4.0463  10.0398  12.9288

     occupation numbers 
     1.0000   1.0000   1.0000   1.0000   1.0000   1.0000   1.0000   1.0000
     1.0000   1.0000   1.0000   1.0000   0.0000   0.0000   0.0000   0.0000

          k =-0.3976 0.0000-0.8429 (  1074 PWs)   bands (ev):

   -24.1771 -24.1768 -11.8312 -11.8312  -5.3194  -5.3193  -3.8419  -3.8419
    -2.3427  -2.3426   2.4588   2.4588   4.0020   4.0022  10.8358  10.8360

     occupation numbers 
     1.0000   1.0000   1.0000   1.0000   1.0000   1.0000   1.0000   1.0000
     1.0000   1.0000   1.0000   1.0000   0.0000   0.0000   0.0000   0.0000

          k =-0.4664 0.3027-0.2978 (  1034 PWs)   bands (ev):

   -24.0336 -24.0333 -11.5614 -11.5614  -5.4603  -5.4602  -3.8349  -3.8348
    -2.9180  -2.9180   2.2865   2.2865   3.5608   3.5609  11.5903  11.5905

     occupation numbers 
     1.0000   1.0000   1.0000   1.0000   1.0000   1.0000   1.0000   1.0000
     1.0000   1.0000   1.0000   1.0000   0.0000   0.0000   0.0000   0.0000

          k =-0.5008 0.3027-0.0253 (  1042 PWs)   bands (ev):

   -24.0411 -24.0230 -11.7458 -11.4231  -5.6790  -5.1643  -3.9295  -3.7012
    -2.9302  -2.9080   2.2010   2.3600   3.5521   3.5905  10.4367  12.9985

     occupation numbers 
     1.0000   1.0000   1.0000   1.0000   1.0000   1.0000   1.0000   1.0000
     1.0000   1.0000   1.0000   1.0000   0.0000   0.0000   0.0000   0.0000

          k =-0.3976 0.3027-0.8429 (  1052 PWs)   bands (ev):

   -24.0305 -24.0302 -11.6196 -11.6196  -5.3493  -5.3493  -3.8324  -3.8324
    -2.9213  -2.9213   2.2877   2.2877   3.5805   3.5806  11.1402  11.1404

     occupation numbers 
     1.0000   1.0000   1.0000   1.0000   1.0000   1.0000   1.0000   1.0000
     1.0000   1.0000   1.0000   1.0000   0.0000   0.0000   0.0000   0.0000

          k =-0.4664 0.6053-0.2978 (  1030 PWs)   bands (ev):

   -23.7234 -23.7231 -11.1050 -11.1050  -5.9143  -5.9142  -4.1422  -4.1421
    -3.1405  -3.1404   1.4124   1.4125   3.3522   3.3522  12.1676  12.1678

     occupation numbers 
     1.0000   1.0000   1.0000   1.0000   1.0000   1.0000   1.0000   1.0000
     1.0000   1.0000   1.0000   1.0000   0.0001   0.0001   0.0000   0.0000

          k =-0.5008 0.6053-0.0253 (  1036 PWs)   bands (ev):

   -23.7275 -23.7169 -11.2270 -11.0261  -5.9983  -5.8151  -4.1876  -3.9764
    -3.1643  -3.1408   1.3544   1.3692   3.3646   3.4055  11.4296  12.9802

     occupation numbers 
     1.0000   1.0000   1.0000   1.0000   1.0000   1.0000   1.0000   1.0000
     1.0000   1.0000   1.0000   1.0000   0.0000   0.0000   0.0000   0.0000

          k =-0.3976 0.6053-0.8429 (  1036 PWs)   bands (ev):

   -23.7210 -23.7207 -11.1535 -11.1535  -5.8717  -5.8716  -4.0563  -4.0561
    -3.1668  -3.1667   1.3394   1.3395   3.4156   3.4157  11.8319  11.8321

     occupation numbers 
     1.0000   1.0000   1.0000   1.0000   1.0000   1.0000   1.0000   1.0000
     1.0000   1.0000   1.0000   1.0000   0.0000   0.0000   0.0000   0.0000

          k =-0.4664-0.9080-0.2978 (  1028 PWs)   bands (ev):

   -23.5585 -23.5582 -10.8509 -10.8509  -6.3865  -6.3864  -4.1702  -4.1700
    -3.0559  -3.0557   0.8234   0.8234   3.4215   3.4215  12.4925  12.4927

     occupation numbers 
     1.0000   1.0000   1.0000   1.0000   1.0000   1.0000   1.0000   1.0000
     1.0000   1.0000   1.0000   1.0000   0.0000   0.0000   0.0000   0.0000

          k =-0.5008-0.9080-0.0253 (  1034 PWs)   bands (ev):

   -23.5579 -23.5575 -10.8718 -10.8718  -6.3830  -6.3829  -4.1059  -4.1057
    -3.0673  -3.0672   0.7616   0.7616   3.4527   3.4527  12.4718  12.4720

     occupation numbers 
     1.0000   1.0000   1.0000   1.0000   1.0000   1.0000   1.0000   1.0000
     1.0000   1.0000   1.0000   1.0000   0.0000   0.0000   0.0000   0.0000

          k =-0.3976-0.9080-0.8429 (  1008 PWs)   bands (ev):

   -23.5565 -23.5562 -10.8934 -10.8933  -6.3619  -6.3618  -4.0739  -4.0737
    -3.0783  -3.0781   0.7353   0.7353   3.4850   3.4851  12.2386  12.2388

     occupation numbers 
     1.0000   1.0000   1.0000   1.0000   1.0000   1.0000   1.0000   1.0000
     1.0000   1.0000   1.0000   1.0000   0.0000   0.0000   0.0000   0.0000

     the Fermi energy is     2.9900 ev

!    total energy              =    -127.68521947 Ry
     Harris-Foulkes estimate   =    -127.68521925 Ry
     estimated scf accuracy    <          3.1E-09 Ry

     The total energy is the sum of the following terms:

     one-electron contribution =     -64.55544060 Ry
     hartree contribution      =      43.15705933 Ry
     xc contribution           =     -27.18414484 Ry
     ewald contribution        =     -79.10158824 Ry
     smearing contrib. (-TS)   =      -0.00110512 Ry

     convergence has been achieved in   9 iterations

     Forces acting on atoms (cartesian axes, Ry/au):

     atom    1 type  1   force =    -0.00010488    0.00000000    0.00026674
     atom    2 type  1   force =    -0.00010625   -0.00000000    0.00027254
     atom    3 type  1   force =     0.00010625   -0.00000000   -0.00027254
     atom    4 type  1   force =     0.00010488    0.00000000   -0.00026674
     The non-local contrib.  to forces
     atom    1 type  1   force =     0.39327609    0.00000000   -3.11227386
     atom    2 type  1   force =     0.39326729    0.00000000   -3.11234605
     atom    3 type  1   force =    -0.39326729    0.00000000    3.11234605
     atom    4 type  1   force =    -0.39327609    0.00000000    3.11227386
     The ionic contribution  to forces
     atom    1 type  1   force =    -1.72067578   -0.00000000   13.56413487
     atom    2 type  1   force =    -1.72068020    0.00000000   13.56435939
     atom    3 type  1   force =     1.72068020    0.00000000  -13.56435939
     atom    4 type  1   force =     1.72067578   -0.00000000  -13.56413487
     The local contribution  to forces
     atom    1 type  1   force =     1.32729371   -0.00000000  -10.45158729
     atom    2 type  1   force =     1.32730017    0.00000000  -10.45169746
     atom    3 type  1   force =    -1.32730017    0.00000000   10.45169746
     atom    4 type  1   force =    -1.32729371   -0.00000000   10.45158729
     The core correction contribution to forces
     atom    1 type  1   force =     0.00000000    0.00000000    0.00000000
     atom    2 type  1   force =     0.00000000    0.00000000    0.00000000
     atom    3 type  1   force =     0.00000000    0.00000000    0.00000000
     atom    4 type  1   force =     0.00000000    0.00000000    0.00000000
     The Hubbard contrib.    to forces
     atom    1 type  1   force =     0.00000000    0.00000000    0.00000000
     atom    2 type  1   force =     0.00000000    0.00000000    0.00000000
     atom    3 type  1   force =     0.00000000    0.00000000    0.00000000
     atom    4 type  1   force =     0.00000000    0.00000000    0.00000000
     The SCF correction term to forces
     atom    1 type  1   force =     0.00000109   -0.00000000   -0.00000698
     atom    2 type  1   force =     0.00000649    0.00000000   -0.00004335
     atom    3 type  1   force =    -0.00000649    0.00000000    0.00004335
     atom    4 type  1   force =    -0.00000109    0.00000000    0.00000698

     Total force =     0.000579     Total SCF correction =     0.000063
     SCF correction compared to forces is large: reduce conv_thr to get better values


     Computing stress (Cartesian axis) and pressure

          total   stress  (Ry/bohr**3)                   (kbar)     P=    4.99
   0.00004163   0.00000000   0.00000143          6.12      0.00      0.21
   0.00000000   0.00000935   0.00000000          0.00      1.38      0.00
   0.00000143   0.00000000   0.00005078          0.21      0.00      7.47

     kinetic stress (kbar)  18549.60      0.00    315.72
                                0.00  18423.69      0.00
                              315.72      0.00  16088.69

     local   stress (kbar) -19422.24      0.00  -1006.52
                                0.00 -21366.20      0.00
                            -1006.52      0.00 -12139.21

     nonloc. stress (kbar)  10628.06      0.00    172.08
                                0.00  10576.11      0.00
                              172.08      0.00   9287.48

     hartree stress (kbar)   9082.81      0.00    884.15
                                0.00   9924.22      0.00
                              884.15      0.00   2415.92

     exc-cor stress (kbar)  -4277.39     -0.00     -7.88
                               -0.00  -4275.32      0.00
                               -7.88      0.00  -4215.61

     corecor stress (kbar)      0.00      0.00      0.00
                                0.00      0.00      0.00
                                0.00      0.00      0.00

     ewald   stress (kbar) -14554.72     -0.00   -357.34
                               -0.00 -13281.13     -0.00
                             -357.34     -0.00 -11429.80

     hubbard stress (kbar)      0.00      0.00      0.00
                                0.00      0.00      0.00
                                0.00      0.00      0.00

     london  stress (kbar)      0.00      0.00      0.00
                                0.00      0.00      0.00
                                0.00      0.00      0.00

     DFT-D3  stress (kbar)      0.00      0.00      0.00
                                0.00      0.00      0.00
                                0.00      0.00      0.00

     XDM     stress (kbar)      0.00      0.00      0.00
                                0.00      0.00      0.00
                                0.00      0.00      0.00

     dft-nl  stress (kbar)      0.00      0.00      0.00
                                0.00      0.00      0.00
                                0.00      0.00      0.00

     TS-vdW  stress (kbar)      0.00      0.00      0.00
                                0.00      0.00      0.00
                                0.00      0.00      0.00



     Writing output data file O2alpha.save/
 
     init_run     :      0.50s CPU      0.55s WALL (       2 calls)
     electrons    :    181.41s CPU    209.56s WALL (      49 calls)
     update_pot   :      5.97s CPU      6.40s WALL (      47 calls)
     forces       :      3.56s CPU      3.89s WALL (      49 calls)
     stress       :      8.02s CPU      8.19s WALL (      49 calls)

     Called by init_run:
     wfcinit      :      0.19s CPU      0.24s WALL (       2 calls)
     wfcinit:atom :      0.00s CPU      0.00s WALL (      80 calls)
     wfcinit:wfcr :      0.18s CPU      0.21s WALL (      80 calls)
     potinit      :      0.11s CPU      0.12s WALL (       2 calls)
     hinit0       :      0.15s CPU      0.15s WALL (       2 calls)

     Called by electrons:
     c_bands      :    152.75s CPU    174.72s WALL (     425 calls)
     sum_band     :     23.15s CPU     25.33s WALL (     425 calls)
     v_of_rho     :      3.50s CPU      3.55s WALL (     465 calls)
     v_h          :      0.17s CPU      0.18s WALL (     465 calls)
     v_xc         :      3.32s CPU      3.36s WALL (     465 calls)
     newd         :      1.58s CPU      1.62s WALL (     465 calls)
     mix_rho      :      0.35s CPU      0.40s WALL (     425 calls)

     Called by c_bands:
     init_us_2    :      2.02s CPU      2.27s WALL (   38000 calls)
     cegterg      :    147.66s CPU    159.84s WALL (   17000 calls)

     Called by sum_band:
     sum_band:bec :      0.19s CPU      0.18s WALL (   17000 calls)
     addusdens    :      1.53s CPU      1.47s WALL (     425 calls)

     Called by *egterg:
     h_psi        :     99.23s CPU    108.29s WALL (   53632 calls)
     s_psi        :      1.99s CPU      2.27s WALL (   53632 calls)
     g_psi        :      1.21s CPU      1.14s WALL (   36552 calls)
     cdiaghg      :     25.01s CPU     26.24s WALL (   51312 calls)
     cegterg:over :      8.02s CPU      8.76s WALL (   36552 calls)
     cegterg:upda :      2.15s CPU      2.16s WALL (   36552 calls)
     cegterg:last :      1.02s CPU      1.12s WALL (   17847 calls)

     Called by h_psi:
     h_psi:pot    :     98.90s CPU    107.85s WALL (   53632 calls)
     h_psi:calbec :      4.91s CPU      5.58s WALL (   53632 calls)
     vloc_psi     :     91.27s CPU     99.38s WALL (   53632 calls)
     add_vuspsi   :      2.17s CPU      2.43s WALL (   53632 calls)

     General routines
     calbec       :      7.61s CPU      8.53s WALL (   80432 calls)
     fft          :      1.98s CPU      2.22s WALL (    6395 calls)
     ffts         :      0.06s CPU      0.12s WALL (     890 calls)
     fftw         :     98.63s CPU    107.51s WALL ( 1726872 calls)
     interpolate  :      0.20s CPU      0.22s WALL (     465 calls)
 
     Parallel routines
     fft_scatt_xy :     10.33s CPU     11.01s WALL ( 1734157 calls)
     fft_scatt_yz :     49.15s CPU     55.27s WALL ( 1734157 calls)
 
     PWSCF        :   3m21.78s CPU   3m56.25s WALL

 
   This run was terminated on:   9:23: 4   5Jan2021            

=------------------------------------------------------------------------------=
   JOB DONE.
=------------------------------------------------------------------------------=
