
     Program PWSCF v.6.3MaX starts on  1Apr2021 at 17:15:28 

     This program is part of the open-source Quantum ESPRESSO suite
     for quantum simulation of materials; please cite
         "P. Giannozzi et al., J. Phys.:Condens. Matter 21 395502 (2009);
         "P. Giannozzi et al., J. Phys.:Condens. Matter 29 465901 (2017);
          URL http://www.quantum-espresso.org", 
     in publications or presentations arising from this work. More details at
     http://www.quantum-espresso.org/quote

     Serial version
     Waiting for input...
     Reading input from standard input

     Current dimensions of program PWSCF are:
     Max number of different atomic species (ntypx) = 10
     Max number of k-points (npk) =  40000
     Max angular momentum in pseudopotentials (lmaxx) =  3
 
     G-vector sticks info
     --------------------
     sticks:   dense  smooth     PW     G-vecs:    dense   smooth      PW
     Sum        1159     511    163                26469     7799    1411
 


     bravais-lattice index     =            2
     lattice parameter (alat)  =      10.3935  a.u.
     unit-cell volume          =     280.6885 (a.u.)^3
     number of atoms/cell      =            1
     number of atomic types    =            1
     number of electrons       =        10.00
     number of Kohn-Sham states=            9
     kinetic-energy cutoff     =      35.0000  Ry
     charge density cutoff     =     315.0000  Ry
     convergence threshold     =      1.0E-06
     mixing beta               =       0.4000
     number of iterations used =            8  plain     mixing
     Exchange-correlation      = SLA PW PBE PBE ( 1  4  3  4 0 0)
     nstep                     =          100


     celldm(1)=  10.393494  celldm(2)=   0.000000  celldm(3)=   0.000000
     celldm(4)=   0.000000  celldm(5)=   0.000000  celldm(6)=   0.000000

     crystal axes: (cart. coord. in units of alat)
               a(1) = (  -0.500000   0.000000   0.500000 )  
               a(2) = (   0.000000   0.500000   0.500000 )  
               a(3) = (  -0.500000   0.500000   0.000000 )  

     reciprocal axes: (cart. coord. in units 2 pi/alat)
               b(1) = ( -1.000000 -1.000000  1.000000 )  
               b(2) = (  1.000000  1.000000  1.000000 )  
               b(3) = ( -1.000000  1.000000 -1.000000 )  


     PseudoPot. # 1 for Ca read from file:
     ../pseudo/Ca.pbe-nsp-van.UPF
     MD5 check sum: cdab9c70410076c6adf7f3c9fd3601e0
     Pseudo is Ultrasoft + core correction, Zval = 10.0
     Generated by new atomic code, or converted to UPF format
     Using radial grid of  845 points,  6 beta functions with: 
                l(1) =   0
                l(2) =   0
                l(3) =   1
                l(4) =   1
                l(5) =   2
                l(6) =   2
     Q(r) pseudized with  6 coefficients,  rinner =    1.200   1.200   1.200
                                                       1.200   1.200

     atomic species   valence    mass     pseudopotential
        Ca            10.00    40.07800     Ca( 1.00)

     48 Sym. Ops., with inversion, found


                                    s                        frac. trans.

      isym =  1     identity                                     

 cryst.   s( 1) = (     1          0          0      )
                  (     0          1          0      )
                  (     0          0          1      )

 cart.    s( 1) = (  1.0000000  0.0000000  0.0000000 )
                  (  0.0000000  1.0000000  0.0000000 )
                  (  0.0000000  0.0000000  1.0000000 )


      isym =  2     180 deg rotation - cart. axis [0,0,1]        

 cryst.   s( 2) = (     0          1         -1      )
                  (     1          0         -1      )
                  (     0          0         -1      )

 cart.    s( 2) = ( -1.0000000  0.0000000  0.0000000 )
                  (  0.0000000 -1.0000000  0.0000000 )
                  (  0.0000000  0.0000000  1.0000000 )


      isym =  3     180 deg rotation - cart. axis [0,1,0]        

 cryst.   s( 3) = (    -1          0          0      )
                  (    -1          0          1      )
                  (    -1          1          0      )

 cart.    s( 3) = ( -1.0000000  0.0000000  0.0000000 )
                  (  0.0000000  1.0000000  0.0000000 )
                  (  0.0000000  0.0000000 -1.0000000 )


      isym =  4     180 deg rotation - cart. axis [1,0,0]        

 cryst.   s( 4) = (     0         -1          1      )
                  (     0         -1          0      )
                  (     1         -1          0      )

 cart.    s( 4) = (  1.0000000  0.0000000  0.0000000 )
                  (  0.0000000 -1.0000000  0.0000000 )
                  (  0.0000000  0.0000000 -1.0000000 )


      isym =  5     180 deg rotation - cart. axis [1,1,0]        

 cryst.   s( 5) = (     0         -1          0      )
                  (    -1          0          0      )
                  (     0          0         -1      )

 cart.    s( 5) = (  0.0000000  1.0000000  0.0000000 )
                  (  1.0000000  0.0000000  0.0000000 )
                  (  0.0000000  0.0000000 -1.0000000 )


      isym =  6     180 deg rotation - cart. axis [1,-1,0]       

 cryst.   s( 6) = (    -1          0          1      )
                  (     0         -1          1      )
                  (     0          0          1      )

 cart.    s( 6) = (  0.0000000 -1.0000000  0.0000000 )
                  ( -1.0000000  0.0000000  0.0000000 )
                  (  0.0000000  0.0000000 -1.0000000 )


      isym =  7      90 deg rotation - cart. axis [0,0,-1]       

 cryst.   s( 7) = (     0          1          0      )
                  (     0          1         -1      )
                  (    -1          1          0      )

 cart.    s( 7) = (  0.0000000  1.0000000  0.0000000 )
                  ( -1.0000000  0.0000000  0.0000000 )
                  (  0.0000000  0.0000000  1.0000000 )


      isym =  8      90 deg rotation - cart. axis [0,0,1]        

 cryst.   s( 8) = (     1          0         -1      )
                  (     1          0          0      )
                  (     1         -1          0      )

 cart.    s( 8) = (  0.0000000 -1.0000000  0.0000000 )
                  (  1.0000000  0.0000000  0.0000000 )
                  (  0.0000000  0.0000000  1.0000000 )


      isym =  9     180 deg rotation - cart. axis [1,0,1]        

 cryst.   s( 9) = (    -1          0          0      )
                  (     0          0         -1      )
                  (     0         -1          0      )

 cart.    s( 9) = (  0.0000000  0.0000000  1.0000000 )
                  (  0.0000000 -1.0000000  0.0000000 )
                  (  1.0000000  0.0000000  0.0000000 )


      isym = 10     180 deg rotation - cart. axis [-1,0,1]       

 cryst.   s(10) = (     1          0          0      )
                  (     1         -1          0      )
                  (     1          0         -1      )

 cart.    s(10) = (  0.0000000  0.0000000 -1.0000000 )
                  (  0.0000000 -1.0000000  0.0000000 )
                  ( -1.0000000  0.0000000  0.0000000 )


      isym = 11      90 deg rotation - cart. axis [0,1,0]        

 cryst.   s(11) = (     0          1         -1      )
                  (    -1          1          0      )
                  (     0          1          0      )

 cart.    s(11) = (  0.0000000  0.0000000  1.0000000 )
                  (  0.0000000  1.0000000  0.0000000 )
                  ( -1.0000000  0.0000000  0.0000000 )


      isym = 12      90 deg rotation - cart. axis [0,-1,0]       

 cryst.   s(12) = (     0         -1          1      )
                  (     0          0          1      )
                  (    -1          0          1      )

 cart.    s(12) = (  0.0000000  0.0000000 -1.0000000 )
                  (  0.0000000  1.0000000  0.0000000 )
                  (  1.0000000  0.0000000  0.0000000 )


      isym = 13     180 deg rotation - cart. axis [0,1,1]        

 cryst.   s(13) = (    -1          1          0      )
                  (     0          1          0      )
                  (     0          1         -1      )

 cart.    s(13) = ( -1.0000000  0.0000000  0.0000000 )
                  (  0.0000000  0.0000000  1.0000000 )
                  (  0.0000000  1.0000000  0.0000000 )


      isym = 14     180 deg rotation - cart. axis [0,1,-1]       

 cryst.   s(14) = (     0          0         -1      )
                  (     0         -1          0      )
                  (    -1          0          0      )

 cart.    s(14) = ( -1.0000000  0.0000000  0.0000000 )
                  (  0.0000000  0.0000000 -1.0000000 )
                  (  0.0000000 -1.0000000  0.0000000 )


      isym = 15      90 deg rotation - cart. axis [-1,0,0]       

 cryst.   s(15) = (     0          0          1      )
                  (    -1          0          1      )
                  (     0         -1          1      )

 cart.    s(15) = (  1.0000000  0.0000000  0.0000000 )
                  (  0.0000000  0.0000000  1.0000000 )
                  (  0.0000000 -1.0000000  0.0000000 )


      isym = 16      90 deg rotation - cart. axis [1,0,0]        

 cryst.   s(16) = (     1         -1          0      )
                  (     1          0         -1      )
                  (     1          0          0      )

 cart.    s(16) = (  1.0000000  0.0000000  0.0000000 )
                  (  0.0000000  0.0000000 -1.0000000 )
                  (  0.0000000  1.0000000  0.0000000 )


      isym = 17     120 deg rotation - cart. axis [-1,-1,-1]     

 cryst.   s(17) = (    -1          0          1      )
                  (    -1          1          0      )
                  (    -1          0          0      )

 cart.    s(17) = (  0.0000000  1.0000000  0.0000000 )
                  (  0.0000000  0.0000000  1.0000000 )
                  (  1.0000000  0.0000000  0.0000000 )


      isym = 18     120 deg rotation - cart. axis [-1,1,1]       

 cryst.   s(18) = (     0          1          0      )
                  (     0          0          1      )
                  (     1          0          0      )

 cart.    s(18) = (  0.0000000 -1.0000000  0.0000000 )
                  (  0.0000000  0.0000000  1.0000000 )
                  ( -1.0000000  0.0000000  0.0000000 )


      isym = 19     120 deg rotation - cart. axis [1,1,-1]       

 cryst.   s(19) = (     1          0         -1      )
                  (     0          0         -1      )
                  (     0          1         -1      )

 cart.    s(19) = (  0.0000000  1.0000000  0.0000000 )
                  (  0.0000000  0.0000000 -1.0000000 )
                  ( -1.0000000  0.0000000  0.0000000 )


      isym = 20     120 deg rotation - cart. axis [1,-1,1]       

 cryst.   s(20) = (     0         -1          0      )
                  (     1         -1          0      )
                  (     0         -1          1      )

 cart.    s(20) = (  0.0000000 -1.0000000  0.0000000 )
                  (  0.0000000  0.0000000 -1.0000000 )
                  (  1.0000000  0.0000000  0.0000000 )


      isym = 21     120 deg rotation - cart. axis [1,1,1]        

 cryst.   s(21) = (     0          0         -1      )
                  (     0          1         -1      )
                  (     1          0         -1      )

 cart.    s(21) = (  0.0000000  0.0000000  1.0000000 )
                  (  1.0000000  0.0000000  0.0000000 )
                  (  0.0000000  1.0000000  0.0000000 )


      isym = 22     120 deg rotation - cart. axis [-1,1,-1]      

 cryst.   s(22) = (    -1          1          0      )
                  (    -1          0          0      )
                  (    -1          0          1      )

 cart.    s(22) = (  0.0000000  0.0000000  1.0000000 )
                  ( -1.0000000  0.0000000  0.0000000 )
                  (  0.0000000 -1.0000000  0.0000000 )


      isym = 23     120 deg rotation - cart. axis [1,-1,-1]      

 cryst.   s(23) = (     0          0          1      )
                  (     1          0          0      )
                  (     0          1          0      )

 cart.    s(23) = (  0.0000000  0.0000000 -1.0000000 )
                  ( -1.0000000  0.0000000  0.0000000 )
                  (  0.0000000  1.0000000  0.0000000 )


      isym = 24     120 deg rotation - cart. axis [-1,-1,1]      

 cryst.   s(24) = (     1         -1          0      )
                  (     0         -1          1      )
                  (     0         -1          0      )

 cart.    s(24) = (  0.0000000  0.0000000 -1.0000000 )
                  (  1.0000000  0.0000000  0.0000000 )
                  (  0.0000000 -1.0000000  0.0000000 )


      isym = 25     inversion                                    

 cryst.   s(25) = (    -1          0          0      )
                  (     0         -1          0      )
                  (     0          0         -1      )

 cart.    s(25) = ( -1.0000000  0.0000000  0.0000000 )
                  (  0.0000000 -1.0000000  0.0000000 )
                  (  0.0000000  0.0000000 -1.0000000 )


      isym = 26     inv. 180 deg rotation - cart. axis [0,0,1]   

 cryst.   s(26) = (     0         -1          1      )
                  (    -1          0          1      )
                  (     0          0          1      )

 cart.    s(26) = (  1.0000000  0.0000000  0.0000000 )
                  (  0.0000000  1.0000000  0.0000000 )
                  (  0.0000000  0.0000000 -1.0000000 )


      isym = 27     inv. 180 deg rotation - cart. axis [0,1,0]   

 cryst.   s(27) = (     1          0          0      )
                  (     1          0         -1      )
                  (     1         -1          0      )

 cart.    s(27) = (  1.0000000  0.0000000  0.0000000 )
                  (  0.0000000 -1.0000000  0.0000000 )
                  (  0.0000000  0.0000000  1.0000000 )


      isym = 28     inv. 180 deg rotation - cart. axis [1,0,0]   

 cryst.   s(28) = (     0          1         -1      )
                  (     0          1          0      )
                  (    -1          1          0      )

 cart.    s(28) = ( -1.0000000  0.0000000  0.0000000 )
                  (  0.0000000  1.0000000  0.0000000 )
                  (  0.0000000  0.0000000  1.0000000 )


      isym = 29     inv. 180 deg rotation - cart. axis [1,1,0]   

 cryst.   s(29) = (     0          1          0      )
                  (     1          0          0      )
                  (     0          0          1      )

 cart.    s(29) = (  0.0000000 -1.0000000  0.0000000 )
                  ( -1.0000000  0.0000000  0.0000000 )
                  (  0.0000000  0.0000000  1.0000000 )


      isym = 30     inv. 180 deg rotation - cart. axis [1,-1,0]  

 cryst.   s(30) = (     1          0         -1      )
                  (     0          1         -1      )
                  (     0          0         -1      )

 cart.    s(30) = (  0.0000000  1.0000000  0.0000000 )
                  (  1.0000000  0.0000000  0.0000000 )
                  (  0.0000000  0.0000000  1.0000000 )


      isym = 31     inv.  90 deg rotation - cart. axis [0,0,-1]  

 cryst.   s(31) = (     0         -1          0      )
                  (     0         -1          1      )
                  (     1         -1          0      )

 cart.    s(31) = (  0.0000000 -1.0000000  0.0000000 )
                  (  1.0000000  0.0000000  0.0000000 )
                  (  0.0000000  0.0000000 -1.0000000 )


      isym = 32     inv.  90 deg rotation - cart. axis [0,0,1]   

 cryst.   s(32) = (    -1          0          1      )
                  (    -1          0          0      )
                  (    -1          1          0      )

 cart.    s(32) = (  0.0000000  1.0000000  0.0000000 )
                  ( -1.0000000  0.0000000  0.0000000 )
                  (  0.0000000  0.0000000 -1.0000000 )


      isym = 33     inv. 180 deg rotation - cart. axis [1,0,1]   

 cryst.   s(33) = (     1          0          0      )
                  (     0          0          1      )
                  (     0          1          0      )

 cart.    s(33) = (  0.0000000  0.0000000 -1.0000000 )
                  (  0.0000000  1.0000000  0.0000000 )
                  ( -1.0000000  0.0000000  0.0000000 )


      isym = 34     inv. 180 deg rotation - cart. axis [-1,0,1]  

 cryst.   s(34) = (    -1          0          0      )
                  (    -1          1          0      )
                  (    -1          0          1      )

 cart.    s(34) = (  0.0000000  0.0000000  1.0000000 )
                  (  0.0000000  1.0000000  0.0000000 )
                  (  1.0000000  0.0000000  0.0000000 )


      isym = 35     inv.  90 deg rotation - cart. axis [0,1,0]   

 cryst.   s(35) = (     0         -1          1      )
                  (     1         -1          0      )
                  (     0         -1          0      )

 cart.    s(35) = (  0.0000000  0.0000000 -1.0000000 )
                  (  0.0000000 -1.0000000  0.0000000 )
                  (  1.0000000  0.0000000  0.0000000 )


      isym = 36     inv.  90 deg rotation - cart. axis [0,-1,0]  

 cryst.   s(36) = (     0          1         -1      )
                  (     0          0         -1      )
                  (     1          0         -1      )

 cart.    s(36) = (  0.0000000  0.0000000  1.0000000 )
                  (  0.0000000 -1.0000000  0.0000000 )
                  ( -1.0000000  0.0000000  0.0000000 )


      isym = 37     inv. 180 deg rotation - cart. axis [0,1,1]   

 cryst.   s(37) = (     1         -1          0      )
                  (     0         -1          0      )
                  (     0         -1          1      )

 cart.    s(37) = (  1.0000000  0.0000000  0.0000000 )
                  (  0.0000000  0.0000000 -1.0000000 )
                  (  0.0000000 -1.0000000  0.0000000 )


      isym = 38     inv. 180 deg rotation - cart. axis [0,1,-1]  

 cryst.   s(38) = (     0          0          1      )
                  (     0          1          0      )
                  (     1          0          0      )

 cart.    s(38) = (  1.0000000  0.0000000  0.0000000 )
                  (  0.0000000  0.0000000  1.0000000 )
                  (  0.0000000  1.0000000  0.0000000 )


      isym = 39     inv.  90 deg rotation - cart. axis [-1,0,0]  

 cryst.   s(39) = (     0          0         -1      )
                  (     1          0         -1      )
                  (     0          1         -1      )

 cart.    s(39) = ( -1.0000000  0.0000000  0.0000000 )
                  (  0.0000000  0.0000000 -1.0000000 )
                  (  0.0000000  1.0000000  0.0000000 )


      isym = 40     inv.  90 deg rotation - cart. axis [1,0,0]   

 cryst.   s(40) = (    -1          1          0      )
                  (    -1          0          1      )
                  (    -1          0          0      )

 cart.    s(40) = ( -1.0000000  0.0000000  0.0000000 )
                  (  0.0000000  0.0000000  1.0000000 )
                  (  0.0000000 -1.0000000  0.0000000 )


      isym = 41     inv. 120 deg rotation - cart. axis [-1,-1,-1]

 cryst.   s(41) = (     1          0         -1      )
                  (     1         -1          0      )
                  (     1          0          0      )

 cart.    s(41) = (  0.0000000 -1.0000000  0.0000000 )
                  (  0.0000000  0.0000000 -1.0000000 )
                  ( -1.0000000  0.0000000  0.0000000 )


      isym = 42     inv. 120 deg rotation - cart. axis [-1,1,1]  

 cryst.   s(42) = (     0         -1          0      )
                  (     0          0         -1      )
                  (    -1          0          0      )

 cart.    s(42) = (  0.0000000  1.0000000  0.0000000 )
                  (  0.0000000  0.0000000 -1.0000000 )
                  (  1.0000000  0.0000000  0.0000000 )


      isym = 43     inv. 120 deg rotation - cart. axis [1,1,-1]  

 cryst.   s(43) = (    -1          0          1      )
                  (     0          0          1      )
                  (     0         -1          1      )

 cart.    s(43) = (  0.0000000 -1.0000000  0.0000000 )
                  (  0.0000000  0.0000000  1.0000000 )
                  (  1.0000000  0.0000000  0.0000000 )


      isym = 44     inv. 120 deg rotation - cart. axis [1,-1,1]  

 cryst.   s(44) = (     0          1          0      )
                  (    -1          1          0      )
                  (     0          1         -1      )

 cart.    s(44) = (  0.0000000  1.0000000  0.0000000 )
                  (  0.0000000  0.0000000  1.0000000 )
                  ( -1.0000000  0.0000000  0.0000000 )


      isym = 45     inv. 120 deg rotation - cart. axis [1,1,1]   

 cryst.   s(45) = (     0          0          1      )
                  (     0         -1          1      )
                  (    -1          0          1      )

 cart.    s(45) = (  0.0000000  0.0000000 -1.0000000 )
                  ( -1.0000000  0.0000000  0.0000000 )
                  (  0.0000000 -1.0000000  0.0000000 )


      isym = 46     inv. 120 deg rotation - cart. axis [-1,1,-1] 

 cryst.   s(46) = (     1         -1          0      )
                  (     1          0          0      )
                  (     1          0         -1      )

 cart.    s(46) = (  0.0000000  0.0000000 -1.0000000 )
                  (  1.0000000  0.0000000  0.0000000 )
                  (  0.0000000  1.0000000  0.0000000 )


      isym = 47     inv. 120 deg rotation - cart. axis [1,-1,-1] 

 cryst.   s(47) = (     0          0         -1      )
                  (    -1          0          0      )
                  (     0         -1          0      )

 cart.    s(47) = (  0.0000000  0.0000000  1.0000000 )
                  (  1.0000000  0.0000000  0.0000000 )
                  (  0.0000000 -1.0000000  0.0000000 )


      isym = 48     inv. 120 deg rotation - cart. axis [-1,-1,1] 

 cryst.   s(48) = (    -1          1          0      )
                  (     0          1         -1      )
                  (     0          1          0      )

 cart.    s(48) = (  0.0000000  0.0000000  1.0000000 )
                  ( -1.0000000  0.0000000  0.0000000 )
                  (  0.0000000  1.0000000  0.0000000 )


     point group O_h (m-3m) 
     there are 10 classes
     the character table:

       E     8C3   3C2   6C4   6C2'  i     8S6   3s_h  6S4   6s_d 
A_1g   1.00  1.00  1.00  1.00  1.00  1.00  1.00  1.00  1.00  1.00
A_2g   1.00  1.00  1.00 -1.00 -1.00  1.00  1.00  1.00 -1.00 -1.00
E_g    2.00 -1.00  2.00  0.00  0.00  2.00 -1.00  2.00  0.00  0.00
T_1g   3.00  0.00 -1.00  1.00 -1.00  3.00  0.00 -1.00  1.00 -1.00
T_2g   3.00  0.00 -1.00 -1.00  1.00  3.00  0.00 -1.00 -1.00  1.00
A_1u   1.00  1.00  1.00  1.00  1.00 -1.00 -1.00 -1.00 -1.00 -1.00
A_2u   1.00  1.00  1.00 -1.00 -1.00 -1.00 -1.00 -1.00  1.00  1.00
E_u    2.00 -1.00  2.00  0.00  0.00 -2.00  1.00 -2.00  0.00  0.00
T_1u   3.00  0.00 -1.00  1.00 -1.00 -3.00  0.00  1.00 -1.00  1.00
T_2u   3.00  0.00 -1.00 -1.00  1.00 -3.00  0.00  1.00  1.00 -1.00

     the symmetry operations in each class and the name of the first element:

     E        1
          identity                                               
     8C3     17   19   20   18   24   21   22   23
          120 deg rotation - cart. axis [-1,-1,-1]               
     3C2      2    4    3
          180 deg rotation - cart. axis [0,0,1]                  
     6C4      7    8   15   16   12   11
           90 deg rotation - cart. axis [0,0,-1]                 
     6C2'     5    6   14   13   10    9
          180 deg rotation - cart. axis [1,1,0]                  
     i       25
          inversion                                              
     8S6     41   43   44   42   48   45   46   47
          inv. 120 deg rotation - cart. axis [-1,-1,-1]          
     3s_h    26   28   27
          inv. 180 deg rotation - cart. axis [0,0,1]             
     6S4     31   32   39   40   36   35
          inv.  90 deg rotation - cart. axis [0,0,-1]            
     6s_d    29   30   38   37   34   33
          inv. 180 deg rotation - cart. axis [1,1,0]             

   Cartesian axes

     site n.     atom                  positions (alat units)
         1           Ca  tau(   1) = (   0.0000000   0.0000000   0.0000000  )

   Crystallographic axes

     site n.     atom                  positions (cryst. coord.)
         1           Ca  tau(   1) = (  0.0000000  0.0000000  0.0000000  )

     number of k points=    16  gaussian smearing, width (Ry)=  0.0100
                       cart. coord. in units 2pi/alat
        k(    1) = (   0.0000000   0.0000000   0.0000000), wk =   0.0092593
        k(    2) = (  -0.1666667   0.1666667  -0.1666667), wk =   0.0740741
        k(    3) = (  -0.3333333   0.3333333  -0.3333333), wk =   0.0740741
        k(    4) = (   0.5000000  -0.5000000   0.5000000), wk =   0.0370370
        k(    5) = (   0.0000000   0.3333333   0.0000000), wk =   0.0555556
        k(    6) = (  -0.1666667   0.5000000  -0.1666667), wk =   0.2222222
        k(    7) = (   0.6666667  -0.3333333   0.6666667), wk =   0.2222222
        k(    8) = (   0.5000000  -0.1666667   0.5000000), wk =   0.2222222
        k(    9) = (   0.3333333   0.0000000   0.3333333), wk =   0.1111111
        k(   10) = (   0.0000000   0.6666667   0.0000000), wk =   0.0555556
        k(   11) = (   0.8333333  -0.1666667   0.8333333), wk =   0.2222222
        k(   12) = (   0.6666667  -0.0000000   0.6666667), wk =   0.1111111
        k(   13) = (   0.0000000  -1.0000000   0.0000000), wk =   0.0277778
        k(   14) = (   0.6666667  -0.3333333   1.0000000), wk =   0.2222222
        k(   15) = (   0.5000000  -0.1666667   0.8333333), wk =   0.2222222
        k(   16) = (  -0.3333333  -1.0000000   0.0000000), wk =   0.1111111

                       cryst. coord.
        k(    1) = (   0.0000000   0.0000000   0.0000000), wk =   0.0092593
        k(    2) = (   0.0000000   0.0000000   0.1666667), wk =   0.0740741
        k(    3) = (   0.0000000   0.0000000   0.3333333), wk =   0.0740741
        k(    4) = (   0.0000000   0.0000000  -0.5000000), wk =   0.0370370
        k(    5) = (   0.0000000   0.1666667   0.1666667), wk =   0.0555556
        k(    6) = (   0.0000000   0.1666667   0.3333333), wk =   0.2222222
        k(    7) = (   0.0000000   0.1666667  -0.5000000), wk =   0.2222222
        k(    8) = (   0.0000000   0.1666667  -0.3333333), wk =   0.2222222
        k(    9) = (   0.0000000   0.1666667  -0.1666667), wk =   0.1111111
        k(   10) = (   0.0000000   0.3333333   0.3333333), wk =   0.0555556
        k(   11) = (   0.0000000   0.3333333  -0.5000000), wk =   0.2222222
        k(   12) = (   0.0000000   0.3333333  -0.3333333), wk =   0.1111111
        k(   13) = (   0.0000000  -0.5000000  -0.5000000), wk =   0.0277778
        k(   14) = (   0.1666667   0.3333333  -0.5000000), wk =   0.2222222
        k(   15) = (   0.1666667   0.3333333  -0.3333333), wk =   0.2222222
        k(   16) = (   0.1666667  -0.5000000  -0.3333333), wk =   0.1111111

     Dense  grid:    26469 G-vectors     FFT dimensions: (  45,  45,  45)

     Smooth grid:     7799 G-vectors     FFT dimensions: (  27,  27,  27)

     Dynamical RAM for                 wfc:       0.13 MB

     Dynamical RAM for     wfc (w. buffer):       2.29 MB

     Dynamical RAM for           str. fact:       0.40 MB

     Dynamical RAM for           local pot:       0.00 MB

     Dynamical RAM for          nlocal pot:       0.27 MB

     Dynamical RAM for                qrad:       4.71 MB

     Dynamical RAM for          rho,v,vnew:       3.30 MB

     Dynamical RAM for               rhoin:       1.10 MB

     Dynamical RAM for            rho*nmix:       6.46 MB

     Dynamical RAM for           G-vectors:       1.57 MB

     Dynamical RAM for          h,s,v(r/c):       0.06 MB

     Dynamical RAM for          <psi|beta>:       0.00 MB

     Dynamical RAM for                 psi:       0.54 MB

     Dynamical RAM for                hpsi:       0.54 MB

     Dynamical RAM for                spsi:       0.54 MB

     Dynamical RAM for      wfcinit/wfcrot:       0.30 MB

     Dynamical RAM for           addusdens:      75.53 MB

     Dynamical RAM for          addusforce:      75.73 MB

     Dynamical RAM for         addusstress:      81.18 MB

     Estimated static dynamical RAM per process >      24.39 MB

     Estimated max dynamical RAM per process >     105.57 MB

     Check: negative/imaginary core charge=   -0.000003    0.000000

     Initial potential from superposition of free atoms
     Check: negative starting charge=   -0.000167

     starting charge    9.99454, renormalised to   10.00000

     negative rho (up, down):  1.668E-04 0.000E+00
     Starting wfcs are   10 randomized atomic wfcs

     total cpu time spent up to now is        1.9 secs

     Self-consistent Calculation

     iteration #  1     ecut=    35.00 Ry     beta= 0.40
     Davidson diagonalization with overlap
     ethr =  1.00E-02,  avg # of iterations =  2.4

     Threshold (ethr) on eigenvalues was too large:
     Diagonalizing with lowered threshold

     Davidson diagonalization with overlap
     ethr =  1.93E-05,  avg # of iterations =  4.2

     negative rho (up, down):  1.623E-04 0.000E+00

     total cpu time spent up to now is        3.2 secs

     total energy              =     -74.72927756 Ry
     Harris-Foulkes estimate   =     -74.72917013 Ry
     estimated scf accuracy    <       0.00177749 Ry

     iteration #  2     ecut=    35.00 Ry     beta= 0.40
     Davidson diagonalization with overlap
     ethr =  1.78E-05,  avg # of iterations =  1.1

     negative rho (up, down):  1.581E-04 0.000E+00

     total cpu time spent up to now is        3.7 secs

     total energy              =     -74.72947714 Ry
     Harris-Foulkes estimate   =     -74.72933002 Ry
     estimated scf accuracy    <       0.00054917 Ry

     iteration #  3     ecut=    35.00 Ry     beta= 0.40
     Davidson diagonalization with overlap
     ethr =  5.49E-06,  avg # of iterations =  2.1

     negative rho (up, down):  1.578E-04 0.000E+00

     total cpu time spent up to now is        4.2 secs

     total energy              =     -74.72952900 Ry
     Harris-Foulkes estimate   =     -74.72952792 Ry
     estimated scf accuracy    <       0.00004267 Ry

     iteration #  4     ecut=    35.00 Ry     beta= 0.40
     Davidson diagonalization with overlap
     ethr =  4.27E-07,  avg # of iterations =  2.5

     negative rho (up, down):  1.576E-04 0.000E+00

     total cpu time spent up to now is        4.8 secs

     total energy              =     -74.72953441 Ry
     Harris-Foulkes estimate   =     -74.72953524 Ry
     estimated scf accuracy    <       0.00000128 Ry

     iteration #  5     ecut=    35.00 Ry     beta= 0.40
     Davidson diagonalization with overlap
     ethr =  1.28E-08,  avg # of iterations =  3.0

     negative rho (up, down):  1.575E-04 0.000E+00

     total cpu time spent up to now is        5.4 secs

     End of self-consistent calculation

          k = 0.0000 0.0000 0.0000 (   941 PWs)   bands (ev):

   -36.8640 -17.7765 -17.7765 -17.7765   1.0773   7.4880   7.4880   7.4880
     8.5752

     occupation numbers 
     1.0000   1.0000   1.0000   1.0000   1.0000   0.0000   0.0000   0.0000
     0.0000

          k =-0.1667 0.1667-0.1667 (   968 PWs)   bands (ev):

   -36.8604 -17.8135 -17.7816 -17.7816   1.5492   7.0167   7.6225   7.6225
     8.4828

     occupation numbers 
     1.0000   1.0000   1.0000   1.0000   1.0000   0.0000   0.0000   0.0000
     0.0000

          k =-0.3333 0.3333-0.3333 (   968 PWs)   bands (ev):

   -36.8531 -17.8861 -17.7916 -17.7916   2.8233   6.0210   7.5164   7.5164
     8.8632

     occupation numbers 
     1.0000   1.0000   1.0000   1.0000   1.0000   0.0000   0.0000   0.0000
     0.0000

          k = 0.5000-0.5000 0.5000 (   978 PWs)   bands (ev):

   -36.8495 -17.9220 -17.7967 -17.7967   4.1381   4.9726   7.3697   7.3697
     9.2725

     occupation numbers 
     1.0000   1.0000   1.0000   1.0000   1.0000   0.9785   0.0000   0.0000
     0.0000

          k = 0.0000 0.3333 0.0000 (   966 PWs)   bands (ev):

   -36.8592 -17.8122 -17.7899 -17.7899   1.7036   6.9183   7.7462   7.7462
     7.9696

     occupation numbers 
     1.0000   1.0000   1.0000   1.0000   1.0000   0.0000   0.0000   0.0000
     0.0000

          k =-0.1667 0.5000-0.1667 (   981 PWs)   bands (ev):

   -36.8532 -17.8655 -17.8020 -17.8016   2.7082   6.2867   7.2335   7.8600
     8.4227

     occupation numbers 
     1.0000   1.0000   1.0000   1.0000   1.0000   0.0000   0.0000   0.0000
     0.0000

          k = 0.6667-0.3333 0.6667 (   992 PWs)   bands (ev):

   -36.8483 -17.9072 -17.8180 -17.8050   4.2116   5.2876   6.9149   7.6826
     9.2992

     occupation numbers 
     1.0000   1.0000   1.0000   1.0000   1.0000   0.1054   0.0000   0.0000
     0.0000

          k = 0.5000-0.1667 0.5000 (   975 PWs)   bands (ev):

   -36.8495 -17.8957 -17.8227 -17.7967   3.7014   5.7330   6.9011   7.6982
     8.7501

     occupation numbers 
     1.0000   1.0000   1.0000   1.0000   1.0000   0.0000   0.0000   0.0000
     0.0000

          k = 0.3333 0.0000 0.3333 (   975 PWs)   bands (ev):

   -36.8556 -17.8484 -17.8052 -17.7850   2.2924   6.5662   7.3402   7.9791
     8.0398

     occupation numbers 
     1.0000   1.0000   1.0000   1.0000   1.0000   0.0000   0.0000   0.0000
     0.0000

          k = 0.0000 0.6667 0.0000 (  1002 PWs)   bands (ev):

   -36.8496 -17.8808 -17.8165 -17.8165   3.3375   6.0528   6.7788   8.5548
     8.5548

     occupation numbers 
     1.0000   1.0000   1.0000   1.0000   1.0000   0.0000   0.0000   0.0000
     0.0000

          k = 0.8333-0.1667 0.8333 (   987 PWs)   bands (ev):

   -36.8460 -17.8988 -17.8387 -17.8215   4.4678   5.7170   6.2715   8.5390
     9.3609

     occupation numbers 
     1.0000   1.0000   1.0000   1.0000   1.0000   0.0000   0.0000   0.0000
     0.0000

          k = 0.6667-0.0000 0.6667 (   981 PWs)   bands (ev):

   -36.8459 -17.8745 -17.8737 -17.8117   4.9322   5.6966   5.9473   8.1564
     8.9773

     occupation numbers 
     1.0000   1.0000   1.0000   1.0000   0.9927   0.0000   0.0000   0.0000
     0.0000

          k = 0.0000-1.0000 0.0000 (   982 PWs)   bands (ev):

   -36.8448 -17.9135 -17.8298 -17.8298   4.6603   5.7007   6.1158   9.2656
     9.4586

     occupation numbers 
     1.0000   1.0000   1.0000   1.0000   1.0000   0.0000   0.0000   0.0000
     0.0000

          k = 0.6667-0.3333 1.0000 (   983 PWs)   bands (ev):

   -36.8484 -17.8849 -17.8356 -17.8092   3.8330   5.9964   6.4863   8.1130
     8.6647

     occupation numbers 
     1.0000   1.0000   1.0000   1.0000   1.0000   0.0000   0.0000   0.0000
     0.0000

          k = 0.5000-0.1667 0.8333 (   988 PWs)   bands (ev):

   -36.8459 -17.8894 -17.8532 -17.8174   5.1333   5.2389   6.2740   7.9239
     9.0906

     occupation numbers 
     1.0000   1.0000   1.0000   1.0000   0.6378   0.2283   0.0000   0.0000
     0.0000

          k =-0.3333-1.0000 0.0000 (   978 PWs)   bands (ev):

   -36.8447 -17.8927 -17.8508 -17.8307   5.1059   5.7496   5.9473   8.1383
     9.4604

     occupation numbers 
     1.0000   1.0000   1.0000   1.0000   0.7382   0.0000   0.0000   0.0000
     0.0000

     the Fermi energy is     5.1672 ev

!    total energy              =     -74.72953489 Ry
     Harris-Foulkes estimate   =     -74.72953493 Ry
     estimated scf accuracy    <       0.00000015 Ry

     The total energy is the sum of the following terms:

     one-electron contribution =     -38.53051182 Ry
     hartree contribution      =      19.66942799 Ry
     xc contribution           =     -11.75400587 Ry
     ewald contribution        =     -44.11280935 Ry
     smearing contrib. (-TS)   =      -0.00163584 Ry

     convergence has been achieved in   5 iterations

     negative rho (up, down):  1.575E-04 0.000E+00

     Forces acting on atoms (cartesian axes, Ry/au):

     atom    1 type  1   force =     0.00000000    0.00000000    0.00000000
     The non-local contrib.  to forces
     atom    1 type  1   force =    -0.00000000   -0.00000000   -0.00000000
     The ionic contribution  to forces
     atom    1 type  1   force =     0.00000000    0.00000000    0.00000000
     The local contribution  to forces
     atom    1 type  1   force =    -0.00000000   -0.00000000    0.00000000
     The core correction contribution to forces
     atom    1 type  1   force =    -0.00000000   -0.00000000    0.00000000
     The Hubbard contrib.    to forces
     atom    1 type  1   force =     0.00000000    0.00000000    0.00000000
     The SCF correction term to forces
     atom    1 type  1   force =     0.00000000    0.00000000   -0.00000000

     Total force =     0.000000     Total SCF correction =     0.000000


     Computing stress (Cartesian axis) and pressure


     negative rho (up, down):  1.575E-04 0.000E+00
          total   stress  (Ry/bohr**3)                   (kbar)     P=   -0.31
  -0.00000210   0.00000000   0.00000000         -0.31      0.00      0.00
   0.00000000  -0.00000210   0.00000000          0.00     -0.31      0.00
   0.00000000   0.00000000  -0.00000210          0.00      0.00     -0.31

     kinetic stress (kbar)   4390.49      0.00      0.00
                                0.00   4390.49     -0.00
                                0.00     -0.00   4390.49

     local   stress (kbar)  -3496.34      0.00      0.00
                                0.00  -3496.34     -0.00
                                0.00     -0.00  -3496.34

     nonloc. stress (kbar)   5283.88      0.00     -0.00
                                0.00   5283.88     -0.00
                                0.00     -0.00   5283.88

     hartree stress (kbar)   3436.16     -0.00      0.00
                               -0.00   3436.16      0.00
                                0.00      0.00   3436.16

     exc-cor stress (kbar)  -1026.55     -0.00      0.00
                               -0.00  -1026.55     -0.00
                                0.00     -0.00  -1026.55

     corecor stress (kbar)   -881.64      0.00      0.00
                                0.00   -881.64     -0.00
                                0.00     -0.00   -881.64

     ewald   stress (kbar)  -7706.31     -0.00     -0.00
                               -0.00  -7706.31      0.00
                               -0.00      0.00  -7706.31

     hubbard stress (kbar)      0.00      0.00      0.00
                                0.00      0.00      0.00
                                0.00      0.00      0.00

     london  stress (kbar)      0.00      0.00      0.00
                                0.00      0.00      0.00
                                0.00      0.00      0.00

     DFT-D3  stress (kbar)      0.00      0.00      0.00
                                0.00      0.00      0.00
                                0.00      0.00      0.00

     XDM     stress (kbar)      0.00      0.00      0.00
                                0.00      0.00      0.00
                                0.00      0.00      0.00

     dft-nl  stress (kbar)      0.00      0.00      0.00
                                0.00      0.00      0.00
                                0.00      0.00      0.00

     TS-vdW  stress (kbar)      0.00      0.00      0.00
                                0.00      0.00      0.00
                                0.00      0.00      0.00



     BFGS Geometry Optimization

     number of scf cycles    =   1
     number of bfgs steps    =   0

     enthalpy new            =     -74.1571102205 Ry

     new trust radius        =       0.1710108747 bohr
     new conv_thr            =       0.0000010000 Ry

     new unit-cell volume =    239.86845 a.u.^3 (    35.54484 Ang^3 )
     density =      1.87231 g/cm^3

CELL_PARAMETERS (alat= 10.39349373)
  -0.474481720  -0.000000000   0.474481720
  -0.000000000   0.474481720   0.474481720
  -0.474481720   0.474481720   0.000000000

ATOMIC_POSITIONS (crystal)
Ca       0.000000000   0.000000000   0.000000000



     Writing output data file Ca.save/
     Check: negative starting charge=   -0.000167
     NEW-OLD atomic charge density approx. for the potential

     Check: negative/imaginary core charge=   -0.000003    0.000000
     Check: negative starting charge=   -0.000143

     negative rho (up, down):  1.053E-04 0.000E+00
     extrapolated charge    8.29916, renormalised to   10.00000

     total cpu time spent up to now is        8.4 secs

     Self-consistent Calculation

     iteration #  1     ecut=    35.00 Ry     beta= 0.40
     Davidson diagonalization with overlap
     ethr =  1.00E-06,  avg # of iterations =  5.8

     total cpu time spent up to now is        9.3 secs

     total energy              =     -73.09243998 Ry
     Harris-Foulkes estimate   =     -78.89616515 Ry
     estimated scf accuracy    <       1.49118158 Ry

     iteration #  2     ecut=    35.00 Ry     beta= 0.40
     Davidson diagonalization with overlap
     ethr =  1.00E-02,  avg # of iterations =  3.7

     negative rho (up, down):  2.302E-05 0.000E+00

     total cpu time spent up to now is       10.0 secs

     total energy              =     -74.79325801 Ry
     Harris-Foulkes estimate   =     -74.98997959 Ry
     estimated scf accuracy    <       0.52658756 Ry

     iteration #  3     ecut=    35.00 Ry     beta= 0.40
     Davidson diagonalization with overlap
     ethr =  5.27E-03,  avg # of iterations =  1.0

     negative rho (up, down):  4.602E-05 0.000E+00

     total cpu time spent up to now is       10.6 secs

     total energy              =     -74.76780599 Ry
     Harris-Foulkes estimate   =     -74.81144615 Ry
     estimated scf accuracy    <       0.18493207 Ry

     iteration #  4     ecut=    35.00 Ry     beta= 0.40
     Davidson diagonalization with overlap
     ethr =  1.85E-03,  avg # of iterations =  1.1

     negative rho (up, down):  7.612E-05 0.000E+00

     total cpu time spent up to now is       11.1 secs

     total energy              =     -74.74103950 Ry
     Harris-Foulkes estimate   =     -74.77237156 Ry
     estimated scf accuracy    <       0.09615949 Ry

     iteration #  5     ecut=    35.00 Ry     beta= 0.40
     Davidson diagonalization with overlap
     ethr =  9.62E-04,  avg # of iterations =  1.1

     negative rho (up, down):  1.291E-04 0.000E+00

     total cpu time spent up to now is       11.6 secs

     total energy              =     -74.71465139 Ry
     Harris-Foulkes estimate   =     -74.74362344 Ry
     estimated scf accuracy    <       0.04321675 Ry

     iteration #  6     ecut=    35.00 Ry     beta= 0.40
     Davidson diagonalization with overlap
     ethr =  4.32E-04,  avg # of iterations =  3.1

     negative rho (up, down):  1.351E-04 0.000E+00

     total cpu time spent up to now is       12.2 secs

     total energy              =     -74.72475055 Ry
     Harris-Foulkes estimate   =     -74.72475654 Ry
     estimated scf accuracy    <       0.00005699 Ry

     iteration #  7     ecut=    35.00 Ry     beta= 0.40
     Davidson diagonalization with overlap
     ethr =  5.70E-07,  avg # of iterations =  3.7

     negative rho (up, down):  1.329E-04 0.000E+00

     total cpu time spent up to now is       12.9 secs

     total energy              =     -74.72481907 Ry
     Harris-Foulkes estimate   =     -74.72489354 Ry
     estimated scf accuracy    <       0.00020128 Ry

     iteration #  8     ecut=    35.00 Ry     beta= 0.40
     Davidson diagonalization with overlap
     ethr =  5.70E-07,  avg # of iterations =  2.4

     negative rho (up, down):  1.314E-04 0.000E+00

     total cpu time spent up to now is       13.5 secs

     total energy              =     -74.72479656 Ry
     Harris-Foulkes estimate   =     -74.72482751 Ry
     estimated scf accuracy    <       0.00005803 Ry

     iteration #  9     ecut=    35.00 Ry     beta= 0.40
     Davidson diagonalization with overlap
     ethr =  5.70E-07,  avg # of iterations =  1.9

     negative rho (up, down):  1.309E-04 0.000E+00

     total cpu time spent up to now is       14.0 secs

     total energy              =     -74.72479946 Ry
     Harris-Foulkes estimate   =     -74.72480247 Ry
     estimated scf accuracy    <       0.00000611 Ry

     iteration # 10     ecut=    35.00 Ry     beta= 0.40
     Davidson diagonalization with overlap
     ethr =  6.11E-08,  avg # of iterations =  2.4

     negative rho (up, down):  1.306E-04 0.000E+00

     total cpu time spent up to now is       14.5 secs

     End of self-consistent calculation

          k = 0.0000 0.0000 0.0000 (   941 PWs)   bands (ev):

   -35.3238 -16.2037 -16.2037 -16.2037   2.0136   8.8857   8.8857   8.8857
    10.1875

     occupation numbers 
     1.0000   1.0000   1.0000   1.0000   1.0000   0.0000   0.0000   0.0000
     0.0000

          k =-0.1756 0.1756-0.1756 (   968 PWs)   bands (ev):

   -35.3164 -16.2691 -16.2123 -16.2123   2.5515   8.3413   9.0459   9.0459
    10.0709

     occupation numbers 
     1.0000   1.0000   1.0000   1.0000   1.0000   0.0000   0.0000   0.0000
     0.0000

          k =-0.3513 0.3513-0.3513 (   968 PWs)   bands (ev):

   -35.3014 -16.3966 -16.2292 -16.2292   3.9603   7.2887   8.9143   8.9143
    10.5303

     occupation numbers 
     1.0000   1.0000   1.0000   1.0000   1.0000   0.0000   0.0000   0.0000
     0.0000

          k = 0.5269-0.5269 0.5269 (   978 PWs)   bands (ev):

   -35.2939 -16.4591 -16.2376 -16.2376   5.2692   6.3421   8.7385   8.7385
    11.0291

     occupation numbers 
     1.0000   1.0000   1.0000   1.0000   1.0000   0.6757   0.0000   0.0000
     0.0000

          k = 0.0000 0.3513 0.0000 (   966 PWs)   bands (ev):

   -35.3139 -16.2670 -16.2267 -16.2267   2.7261   8.2046   9.2030   9.2030
     9.4487

     occupation numbers 
     1.0000   1.0000   1.0000   1.0000   1.0000   0.0000   0.0000   0.0000
     0.0000

          k =-0.1756 0.5269-0.1756 (   981 PWs)   bands (ev):

   -35.3015 -16.3602 -16.2474 -16.2466   3.8414   7.5116   8.5809   9.3380
    10.0146

     occupation numbers 
     1.0000   1.0000   1.0000   1.0000   1.0000   0.0000   0.0000   0.0000
     0.0000

          k = 0.7025-0.3513 0.7025 (   992 PWs)   bands (ev):

   -35.2915 -16.4327 -16.2753 -16.2521   5.4200   6.5444   8.2201   9.1187
    11.0722

     occupation numbers 
     1.0000   1.0000   1.0000   1.0000   1.0000   0.0497   0.0000   0.0000
     0.0000

          k = 0.5269-0.1756 0.5269 (   975 PWs)   bands (ev):

   -35.2939 -16.4128 -16.2836 -16.2378   4.9077   6.9895   8.2026   9.1304
    10.3914

     occupation numbers 
     1.0000   1.0000   1.0000   1.0000   1.0000   0.0000   0.0000   0.0000
     0.0000

          k = 0.3513 0.0000 0.3513 (   975 PWs)   bands (ev):

   -35.3064 -16.3304 -16.2532 -16.2179   3.3860   7.8334   8.7193   9.4660
     9.5339

     occupation numbers 
     1.0000   1.0000   1.0000   1.0000   1.0000   0.0000   0.0000   0.0000
     0.0000

          k = 0.0000 0.7025 0.0000 (  1002 PWs)   bands (ev):

   -35.2941 -16.3865 -16.2723 -16.2723   4.4989   7.1946   8.1161  10.1804
    10.1804

     occupation numbers 
     1.0000   1.0000   1.0000   1.0000   1.0000   0.0000   0.0000   0.0000
     0.0000

          k = 0.8782-0.1756 0.8782 (   987 PWs)   bands (ev):

   -35.2866 -16.4174 -16.3112 -16.2808   5.6216   6.8697   7.6214  10.1522
    11.2203

     occupation numbers 
     1.0000   1.0000   1.0000   1.0000   1.0000   0.0000   0.0000   0.0000
     0.0000

          k = 0.7025 0.0000 0.7025 (   981 PWs)   bands (ev):

   -35.2865 -16.3749 -16.3730 -16.2636   6.1550   6.8525   7.2852   9.6886
    11.3998

     occupation numbers 
     1.0000   1.0000   1.0000   1.0000   0.9918   0.0000   0.0000   0.0000
     0.0000

          k = 0.0000-1.0538 0.0000 (   982 PWs)   bands (ev):

   -35.2841 -16.4428 -16.2950 -16.2950   5.6803   6.7887   7.6689  11.0225
    11.2558

     occupation numbers 
     1.0000   1.0000   1.0000   1.0000   1.0000   0.0000   0.0000   0.0000
     0.0000

          k = 0.7025-0.3513 1.0538 (   983 PWs)   bands (ev):

   -35.2915 -16.3935 -16.3060 -16.2596   5.0454   7.2053   7.7414   9.6525
    10.2988

     occupation numbers 
     1.0000   1.0000   1.0000   1.0000   1.0000   0.0000   0.0000   0.0000
     0.0000

          k = 0.5269-0.1756 0.8782 (   988 PWs)   bands (ev):

   -35.2865 -16.4008 -16.3368 -16.2739   6.3321   6.4909   7.5281   9.4459
    10.8299

     occupation numbers 
     1.0000   1.0000   1.0000   1.0000   0.7122   0.1376   0.0000   0.0000
     0.0000

          k =-0.3513-1.0538 0.0000 (   978 PWs)   bands (ev):

   -35.2841 -16.4062 -16.3323 -16.2972   6.1799   6.9300   7.3477   9.7534
    11.2579

     occupation numbers 
     1.0000   1.0000   1.0000   1.0000   0.9839   0.0000   0.0000   0.0000
     0.0000

     the Fermi energy is     6.3859 ev

!    total energy              =     -74.72479980 Ry
     Harris-Foulkes estimate   =     -74.72480039 Ry
     estimated scf accuracy    <       0.00000075 Ry

     The total energy is the sum of the following terms:

     one-electron contribution =     -34.81782416 Ry
     hartree contribution      =      18.39526950 Ry
     xc contribution           =     -11.81580176 Ry
     ewald contribution        =     -46.48525696 Ry
     smearing contrib. (-TS)   =      -0.00118641 Ry

     convergence has been achieved in  10 iterations

     negative rho (up, down):  1.306E-04 0.000E+00

     Forces acting on atoms (cartesian axes, Ry/au):

     atom    1 type  1   force =     0.00000000    0.00000000    0.00000000
     The non-local contrib.  to forces
     atom    1 type  1   force =     0.00000000    0.00000000    0.00000000
     The ionic contribution  to forces
     atom    1 type  1   force =     0.00000000    0.00000000    0.00000000
     The local contribution  to forces
     atom    1 type  1   force =    -0.00000000   -0.00000000    0.00000000
     The core correction contribution to forces
     atom    1 type  1   force =    -0.00000000   -0.00000000    0.00000000
     The Hubbard contrib.    to forces
     atom    1 type  1   force =     0.00000000    0.00000000    0.00000000
     The SCF correction term to forces
     atom    1 type  1   force =    -0.00000000   -0.00000000    0.00000000

     Total force =     0.000000     Total SCF correction =     0.000000


     Computing stress (Cartesian axis) and pressure


     negative rho (up, down):  1.306E-04 0.000E+00
          total   stress  (Ry/bohr**3)                   (kbar)     P=   41.37
   0.00028126   0.00000000  -0.00000000         41.37      0.00     -0.00
  -0.00000000   0.00028126  -0.00000000         -0.00     41.37     -0.00
  -0.00000000   0.00000000   0.00028126         -0.00      0.00     41.37

     kinetic stress (kbar)   5185.03     -0.00     -0.00
                               -0.00   5185.03      0.00
                               -0.00      0.00   5185.03

     local   stress (kbar)  -3352.98      0.00      0.00
                                0.00  -3352.98     -0.00
                                0.00     -0.00  -3352.98

     nonloc. stress (kbar)   6195.71     -0.00     -0.00
                               -0.00   6195.71      0.00
                               -0.00      0.00   6195.71

     hartree stress (kbar)   3760.45     -0.00     -0.00
                               -0.00   3760.45      0.00
                               -0.00      0.00   3760.45

     exc-cor stress (kbar)  -1212.09     -0.00     -0.00
                               -0.00  -1212.09     -0.00
                               -0.00     -0.00  -1212.09

     corecor stress (kbar)  -1032.01      0.00     -0.00
                                0.00  -1032.01     -0.00
                               -0.00     -0.00  -1032.01

     ewald   stress (kbar)  -9502.73      0.00      0.00
                                0.00  -9502.73     -0.00
                                0.00     -0.00  -9502.73

     hubbard stress (kbar)      0.00      0.00      0.00
                                0.00      0.00      0.00
                                0.00      0.00      0.00

     london  stress (kbar)      0.00      0.00      0.00
                                0.00      0.00      0.00
                                0.00      0.00      0.00

     DFT-D3  stress (kbar)      0.00      0.00      0.00
                                0.00      0.00      0.00
                                0.00      0.00      0.00

     XDM     stress (kbar)      0.00      0.00      0.00
                                0.00      0.00      0.00
                                0.00      0.00      0.00

     dft-nl  stress (kbar)      0.00      0.00      0.00
                                0.00      0.00      0.00
                                0.00      0.00      0.00

     TS-vdW  stress (kbar)      0.00      0.00      0.00
                                0.00      0.00      0.00
                                0.00      0.00      0.00



     number of scf cycles    =   2
     number of bfgs steps    =   1

     enthalpy old            =     -74.1571102205 Ry
     enthalpy new            =     -74.2356219455 Ry

     CASE: enthalpy_new < enthalpy_old

     new trust radius        =       0.2498847357 bohr
     new conv_thr            =       0.0000000100 Ry

     new unit-cell volume =    186.37364 a.u.^3 (    27.61772 Ang^3 )
     density =      2.40972 g/cm^3

CELL_PARAMETERS (alat= 10.39349373)
  -0.436204300  -0.000000000   0.436204300
  -0.000000000   0.436204300   0.436204300
  -0.436204300   0.436204300   0.000000000

ATOMIC_POSITIONS (crystal)
Ca       0.000000000   0.000000000   0.000000000



     Writing output data file Ca.save/
     Check: negative starting charge=   -0.000143
     NEW-OLD atomic charge density approx. for the potential

     Check: negative/imaginary core charge=   -0.000001    0.000000
     Check: negative starting charge=   -0.000107

     negative rho (up, down):  5.406E-05 0.000E+00
     extrapolated charge    7.13127, renormalised to   10.00000

     total cpu time spent up to now is       17.5 secs

     Self-consistent Calculation

     iteration #  1     ecut=    35.00 Ry     beta= 0.40
     Davidson diagonalization with overlap
     ethr =  1.00E-06,  avg # of iterations =  7.3

     total cpu time spent up to now is       18.5 secs

     total energy              =     -72.09596159 Ry
     Harris-Foulkes estimate   =     -80.60431918 Ry
     estimated scf accuracy    <       2.70856562 Ry

     iteration #  2     ecut=    35.00 Ry     beta= 0.40
     Davidson diagonalization with overlap
     ethr =  1.00E-02,  avg # of iterations =  3.9

     total cpu time spent up to now is       19.2 secs

     total energy              =     -74.76005458 Ry
     Harris-Foulkes estimate   =     -75.01799977 Ry
     estimated scf accuracy    <       0.66385873 Ry

     iteration #  3     ecut=    35.00 Ry     beta= 0.40
     Davidson diagonalization with overlap
     ethr =  6.64E-03,  avg # of iterations =  1.0

     total cpu time spent up to now is       19.7 secs

     total energy              =     -74.74320080 Ry
     Harris-Foulkes estimate   =     -74.78706206 Ry
     estimated scf accuracy    <       0.20592972 Ry

     iteration #  4     ecut=    35.00 Ry     beta= 0.40
     Davidson diagonalization with overlap
     ethr =  2.06E-03,  avg # of iterations =  1.2

     negative rho (up, down):  4.134E-05 0.000E+00

     total cpu time spent up to now is       20.3 secs

     total energy              =     -74.70308148 Ry
     Harris-Foulkes estimate   =     -74.74865341 Ry
     estimated scf accuracy    <       0.11029712 Ry

     iteration #  5     ecut=    35.00 Ry     beta= 0.40
     Davidson diagonalization with overlap
     ethr =  1.10E-03,  avg # of iterations =  1.1

     negative rho (up, down):  9.863E-05 0.000E+00

     total cpu time spent up to now is       20.8 secs

     total energy              =     -74.68712083 Ry
     Harris-Foulkes estimate   =     -74.70829770 Ry
     estimated scf accuracy    <       0.02994897 Ry

     iteration #  6     ecut=    35.00 Ry     beta= 0.40
     Davidson diagonalization with overlap
     ethr =  2.99E-04,  avg # of iterations =  2.6

     negative rho (up, down):  9.178E-05 0.000E+00

     total cpu time spent up to now is       21.4 secs

     total energy              =     -74.69482848 Ry
     Harris-Foulkes estimate   =     -74.69498142 Ry
     estimated scf accuracy    <       0.00020490 Ry

     iteration #  7     ecut=    35.00 Ry     beta= 0.40
     Davidson diagonalization with overlap
     ethr =  2.05E-06,  avg # of iterations =  3.5

     negative rho (up, down):  9.351E-05 0.000E+00

     total cpu time spent up to now is       22.1 secs

     total energy              =     -74.69493343 Ry
     Harris-Foulkes estimate   =     -74.69499070 Ry
     estimated scf accuracy    <       0.00008887 Ry

     iteration #  8     ecut=    35.00 Ry     beta= 0.40
     Davidson diagonalization with overlap
     ethr =  8.89E-07,  avg # of iterations =  2.3

     negative rho (up, down):  9.328E-05 0.000E+00

     total cpu time spent up to now is       22.6 secs

     total energy              =     -74.69494791 Ry
     Harris-Foulkes estimate   =     -74.69494840 Ry
     estimated scf accuracy    <       0.00000089 Ry

     iteration #  9     ecut=    35.00 Ry     beta= 0.40
     Davidson diagonalization with overlap
     ethr =  8.87E-09,  avg # of iterations =  2.8

     negative rho (up, down):  9.344E-05 0.000E+00

     total cpu time spent up to now is       23.2 secs

     total energy              =     -74.69494830 Ry
     Harris-Foulkes estimate   =     -74.69494827 Ry
     estimated scf accuracy    <       0.00000003 Ry

     iteration # 10     ecut=    35.00 Ry     beta= 0.40
     Davidson diagonalization with overlap
     ethr =  3.24E-10,  avg # of iterations =  2.6

     negative rho (up, down):  9.338E-05 0.000E+00

     total cpu time spent up to now is       23.8 secs

     End of self-consistent calculation

          k = 0.0000 0.0000 0.0000 (   941 PWs)   bands (ev):

   -32.5199 -13.2688 -13.2688 -13.2688   3.9921  11.4905  11.4905  11.4905
    13.2119

     occupation numbers 
     1.0000   1.0000   1.0000   1.0000   1.0000   0.0000   0.0000   0.0000
     0.0000

          k =-0.1910 0.1910-0.1910 (   968 PWs)   bands (ev):

   -32.4979 -13.4220 -13.2872 -13.2872   4.6656  10.8239  11.7019  11.7019
    13.0451

     occupation numbers 
     1.0000   1.0000   1.0000   1.0000   1.0000   0.0000   0.0000   0.0000
     0.0000

          k =-0.3821 0.3821-0.3821 (   968 PWs)   bands (ev):

   -32.4535 -13.7161 -13.3237 -13.3237   6.2951   9.7551  11.5209  11.5209
    13.6604

     occupation numbers 
     1.0000   1.0000   1.0000   1.0000   1.0000   0.0000   0.0000   0.0000
     0.0000

          k = 0.5731-0.5731 0.5731 (   978 PWs)   bands (ev):

   -32.4312 -13.8576 -13.3418 -13.3418   7.4440   9.1781  11.2889  11.2889
    14.3367

     occupation numbers 
     1.0000   1.0000   1.0000   1.0000   1.0000   0.0000   0.0000   0.0000
     0.0000

          k = 0.0000 0.3821 0.0000 (   966 PWs)   bands (ev):

   -32.4906 -13.4177 -13.3201 -13.3201   4.8806  10.5976  11.9328  11.9328
    12.2135

     occupation numbers 
     1.0000   1.0000   1.0000   1.0000   1.0000   0.0000   0.0000   0.0000
     0.0000

          k =-0.1910 0.5731-0.1910 (   981 PWs)   bands (ev):

   -32.4538 -13.6317 -13.3666 -13.3637   6.1900   9.8226  11.1051  12.1110
    13.0199

     occupation numbers 
     1.0000   1.0000   1.0000   1.0000   1.0000   0.0000   0.0000   0.0000
     0.0000

          k = 0.7642-0.3821 0.7642 (   992 PWs)   bands (ev):

   -32.4240 -13.7961 -13.4298 -13.3747   7.7844   9.0416  10.6928  11.8062
    14.4593

     occupation numbers 
     1.0000   1.0000   1.0000   1.0000   1.0000   0.0024   0.0000   0.0000
     0.0000

          k = 0.5731-0.1910 0.5731 (   975 PWs)   bands (ev):

   -32.4314 -13.7513 -13.4494 -13.3423   7.3440   9.4415  10.6462  11.8055
    13.4687

     occupation numbers 
     1.0000   1.0000   1.0000   1.0000   1.0000   0.0000   0.0000   0.0000
     0.0000

          k = 0.3821 0.0000 0.3821 (   975 PWs)   bands (ev):

   -32.4685 -13.5640 -13.3807 -13.2985   5.6756  10.2235  11.3023  12.2404
    12.3251

     occupation numbers 
     1.0000   1.0000   1.0000   1.0000   1.0000   0.0000   0.0000   0.0000
     0.0000

          k = 0.0000 0.7642 0.0000 (  1002 PWs)   bands (ev):

   -32.4319 -13.6900 -13.4215 -13.4215   6.8263   9.3197  10.7354  13.2514
    13.2514

     occupation numbers 
     1.0000   1.0000   1.0000   1.0000   1.0000   0.0000   0.0000   0.0000
     0.0000

          k = 0.9552-0.1910 0.9552 (   987 PWs)   bands (ev):

   -32.4097 -13.7579 -13.5115 -13.4396   7.8062   9.0411  10.3573  13.1935
    14.7043

     occupation numbers 
     1.0000   1.0000   1.0000   1.0000   1.0000   0.0024   0.0000   0.0000
     0.0000

          k = 0.7642 0.0000 0.7642 (   981 PWs)   bands (ev):

   -32.4094 -13.6617 -13.6551 -13.4004   8.5564   9.0295   9.9147  12.5710
    15.1508

     occupation numbers 
     1.0000   1.0000   1.0000   1.0000   0.9868   0.0035   0.0000   0.0000
     0.0000

          k = 0.0000-1.1463 0.0000 (   982 PWs)   bands (ev):

   -32.4025 -13.8149 -13.4717 -13.4717   7.5978   8.8153  10.8611  14.3338
    14.6442

     occupation numbers 
     1.0000   1.0000   1.0000   1.0000   1.0000   0.3193   0.0000   0.0000
     0.0000

          k = 0.7642-0.3821 1.1463 (   983 PWs)   bands (ev):

   -32.4243 -13.7058 -13.5004 -13.3928   7.4873   9.5040  10.1301  12.5613
    13.3737

     occupation numbers 
     1.0000   1.0000   1.0000   1.0000   1.0000   0.0000   0.0000   0.0000
     0.0000

          k = 0.5731-0.1910 0.9552 (   988 PWs)   bands (ev):

   -32.4094 -13.7206 -13.5714 -13.4251   8.6512   8.9133   9.9637  12.3046
    14.0991

     occupation numbers 
     1.0000   1.0000   1.0000   1.0000   0.8918   0.0683   0.0000   0.0000
     0.0000

          k =-0.3821-1.1463 0.0000 (   978 PWs)   bands (ev):

   -32.4022 -13.7310 -13.5594 -13.4793   8.2233   9.1772  10.1298  12.7829
    14.6473

     occupation numbers 
     1.0000   1.0000   1.0000   1.0000   1.0000   0.0000   0.0000   0.0000
     0.0000

     the Fermi energy is     8.7701 ev

!    total energy              =     -74.69494832 Ry
     Harris-Foulkes estimate   =     -74.69494831 Ry
     estimated scf accuracy    <          3.6E-09 Ry

     The total energy is the sum of the following terms:

     one-electron contribution =     -28.51247004 Ry
     hartree contribution      =      16.31203387 Ry
     xc contribution           =     -11.92949377 Ry
     ewald contribution        =     -50.56439078 Ry
     smearing contrib. (-TS)   =      -0.00062761 Ry

     convergence has been achieved in  10 iterations

     negative rho (up, down):  9.338E-05 0.000E+00

     Forces acting on atoms (cartesian axes, Ry/au):

     atom    1 type  1   force =     0.00000000    0.00000000    0.00000000
     The non-local contrib.  to forces
     atom    1 type  1   force =    -0.00000000   -0.00000000   -0.00000000
     The ionic contribution  to forces
     atom    1 type  1   force =     0.00000000    0.00000000    0.00000000
     The local contribution  to forces
     atom    1 type  1   force =    -0.00000000    0.00000000    0.00000000
     The core correction contribution to forces
     atom    1 type  1   force =    -0.00000000   -0.00000000    0.00000000
     The Hubbard contrib.    to forces
     atom    1 type  1   force =     0.00000000    0.00000000    0.00000000
     The SCF correction term to forces
     atom    1 type  1   force =    -0.00000000   -0.00000000    0.00000000

     Total force =     0.000000     Total SCF correction =     0.000000


     Computing stress (Cartesian axis) and pressure


     negative rho (up, down):  9.338E-05 0.000E+00
          total   stress  (Ry/bohr**3)                   (kbar)     P=  142.31
   0.00096737  -0.00000000  -0.00000000        142.31     -0.00     -0.00
   0.00000000   0.00096737  -0.00000000          0.00    142.31     -0.00
  -0.00000000  -0.00000000   0.00096737         -0.00     -0.00    142.31

     kinetic stress (kbar)   6795.53     -0.00     -0.00
                               -0.00   6795.53      0.00
                               -0.00      0.00   6795.53

     local   stress (kbar)  -2714.19      0.00     -0.00
                                0.00  -2714.19     -0.00
                               -0.00     -0.00  -2714.19

     nonloc. stress (kbar)   7987.53     -0.00     -0.00
                               -0.00   7987.53      0.00
                               -0.00      0.00   7987.53

     hartree stress (kbar)   4291.71     -0.00      0.00
                               -0.00   4291.71      0.00
                                0.00      0.00   4291.71

     exc-cor stress (kbar)  -1585.87      0.00      0.00
                                0.00  -1585.87      0.00
                                0.00      0.00  -1585.87

     corecor stress (kbar)  -1328.88     -0.00     -0.00
                               -0.00  -1328.88      0.00
                               -0.00     -0.00  -1328.88

     ewald   stress (kbar) -13303.52      0.00      0.00
                                0.00 -13303.52     -0.00
                                0.00     -0.00 -13303.52

     hubbard stress (kbar)      0.00      0.00      0.00
                                0.00      0.00      0.00
                                0.00      0.00      0.00

     london  stress (kbar)      0.00      0.00      0.00
                                0.00      0.00      0.00
                                0.00      0.00      0.00

     DFT-D3  stress (kbar)      0.00      0.00      0.00
                                0.00      0.00      0.00
                                0.00      0.00      0.00

     XDM     stress (kbar)      0.00      0.00      0.00
                                0.00      0.00      0.00
                                0.00      0.00      0.00

     dft-nl  stress (kbar)      0.00      0.00      0.00
                                0.00      0.00      0.00
                                0.00      0.00      0.00

     TS-vdW  stress (kbar)      0.00      0.00      0.00
                                0.00      0.00      0.00
                                0.00      0.00      0.00



     number of scf cycles    =   3
     number of bfgs steps    =   2

     enthalpy old            =     -74.2356219455 Ry
     enthalpy new            =     -74.3148655674 Ry

     CASE: enthalpy_new < enthalpy_old

     new trust radius        =       0.2547495579 bohr
     new conv_thr            =       0.0000000100 Ry

     new unit-cell volume =    138.92244 a.u.^3 (    20.58618 Ang^3 )
     density =      3.23280 g/cm^3

CELL_PARAMETERS (alat= 10.39349373)
  -0.395505543  -0.000000000   0.395505543
  -0.000000000   0.395505543   0.395505543
  -0.395505543   0.395505543  -0.000000000

ATOMIC_POSITIONS (crystal)
Ca       0.000000000   0.000000000   0.000000000



     Writing output data file Ca.save/
     Check: negative starting charge=   -0.000107
     NEW-OLD atomic charge density approx. for the potential

     Check: negative/imaginary core charge=   -0.000001    0.000000

     negative rho (up, down):  2.436E-05 0.000E+00
     extrapolated charge    6.58620, renormalised to   10.00000

     total cpu time spent up to now is       26.7 secs

     Self-consistent Calculation

     iteration #  1     ecut=    35.00 Ry     beta= 0.40
     Davidson diagonalization with overlap
     ethr =  1.00E-06,  avg # of iterations =  7.1

     total cpu time spent up to now is       27.7 secs

     total energy              =     -71.95680299 Ry
     Harris-Foulkes estimate   =     -79.75622631 Ry
     estimated scf accuracy    <       3.00881907 Ry

     iteration #  2     ecut=    35.00 Ry     beta= 0.40
     Davidson diagonalization with overlap
     ethr =  1.00E-02,  avg # of iterations =  3.4

     total cpu time spent up to now is       28.4 secs

     total energy              =     -74.65750459 Ry
     Harris-Foulkes estimate   =     -74.86772203 Ry
     estimated scf accuracy    <       0.53457627 Ry

     iteration #  3     ecut=    35.00 Ry     beta= 0.40
     Davidson diagonalization with overlap
     ethr =  5.35E-03,  avg # of iterations =  1.1

     negative rho (up, down):  1.055E-04 0.000E+00

     total cpu time spent up to now is       28.9 secs

     total energy              =     -74.56124080 Ry
     Harris-Foulkes estimate   =     -74.68163975 Ry
     estimated scf accuracy    <       0.15009492 Ry

     iteration #  4     ecut=    35.00 Ry     beta= 0.40
     Davidson diagonalization with overlap
     ethr =  1.50E-03,  avg # of iterations =  2.9

     negative rho (up, down):  6.123E-05 0.000E+00

     total cpu time spent up to now is       29.6 secs

     total energy              =     -74.61521586 Ry
     Harris-Foulkes estimate   =     -74.65752918 Ry
     estimated scf accuracy    <       0.08589766 Ry

     iteration #  5     ecut=    35.00 Ry     beta= 0.40
     Davidson diagonalization with overlap
     ethr =  8.59E-04,  avg # of iterations =  1.5

     negative rho (up, down):  5.436E-05 0.000E+00

     total cpu time spent up to now is       30.1 secs

     total energy              =     -74.61634815 Ry
     Harris-Foulkes estimate   =     -74.62288513 Ry
     estimated scf accuracy    <       0.00982085 Ry

     iteration #  6     ecut=    35.00 Ry     beta= 0.40
     Davidson diagonalization with overlap
     ethr =  9.82E-05,  avg # of iterations =  2.9

     negative rho (up, down):  6.126E-05 0.000E+00

     total cpu time spent up to now is       30.8 secs

     total energy              =     -74.61927601 Ry
     Harris-Foulkes estimate   =     -74.61933181 Ry
     estimated scf accuracy    <       0.00013173 Ry

     iteration #  7     ecut=    35.00 Ry     beta= 0.40
     Davidson diagonalization with overlap
     ethr =  1.32E-06,  avg # of iterations =  2.2

     negative rho (up, down):  6.152E-05 0.000E+00

     total cpu time spent up to now is       31.4 secs

     total energy              =     -74.61929397 Ry
     Harris-Foulkes estimate   =     -74.61929373 Ry
     estimated scf accuracy    <       0.00000480 Ry

     iteration #  8     ecut=    35.00 Ry     beta= 0.40
     Davidson diagonalization with overlap
     ethr =  4.80E-08,  avg # of iterations =  2.0

     negative rho (up, down):  6.210E-05 0.000E+00

     total cpu time spent up to now is       31.9 secs

     total energy              =     -74.61929247 Ry
     Harris-Foulkes estimate   =     -74.61929452 Ry
     estimated scf accuracy    <       0.00000323 Ry

     iteration #  9     ecut=    35.00 Ry     beta= 0.40
     Davidson diagonalization with overlap
     ethr =  3.23E-08,  avg # of iterations =  2.5

     negative rho (up, down):  6.206E-05 0.000E+00

     total cpu time spent up to now is       32.5 secs

     total energy              =     -74.61929334 Ry
     Harris-Foulkes estimate   =     -74.61929338 Ry
     estimated scf accuracy    <       0.00000009 Ry

     iteration # 10     ecut=    35.00 Ry     beta= 0.40
     Davidson diagonalization with overlap
     ethr =  8.89E-10,  avg # of iterations =  2.4

     negative rho (up, down):  6.203E-05 0.000E+00

     total cpu time spent up to now is       33.0 secs

     End of self-consistent calculation

          k = 0.0000 0.0000 0.0000 (   941 PWs)   bands (ev):

   -28.7916  -9.1267  -9.1267  -9.1267   7.3294  15.1560  15.1560  15.1560
    17.4982

     occupation numbers 
     1.0000   1.0000   1.0000   1.0000   1.0000   0.0000   0.0000   0.0000
     0.0000

          k =-0.2107 0.2107-0.2107 (   968 PWs)   bands (ev):

   -28.7240  -9.5010  -9.1681  -9.1681   8.2218  14.3558  15.4465  15.4465
    17.2530

     occupation numbers 
     1.0000   1.0000   1.0000   1.0000   1.0000   0.0000   0.0000   0.0000
     0.0000

          k =-0.4214 0.4214-0.4214 (   968 PWs)   bands (ev):

   -28.5854 -10.1969  -9.2493  -9.2493   9.9991  13.5386  15.1926  15.1926
    18.1057

     occupation numbers 
     1.0000   1.0000   1.0000   1.0000   1.0000   0.0000   0.0000   0.0000
     0.0000

          k = 0.6321-0.6321 0.6321 (   978 PWs)   bands (ev):

   -28.5144 -10.5240  -9.2891  -9.2891  10.6547  13.7911  14.8783  14.8783
    19.0499

     occupation numbers 
     1.0000   1.0000   1.0000   1.0000   1.0000   0.0000   0.0000   0.0000
     0.0000

          k = 0.0000 0.4214 0.0000 (   966 PWs)   bands (ev):

   -28.7017  -9.4906  -9.2463  -9.2463   8.4988  13.9603  15.8068  15.8068
    16.1270

     occupation numbers 
     1.0000   1.0000   1.0000   1.0000   1.0000   0.0000   0.0000   0.0000
     0.0000

          k =-0.2107 0.6321-0.2107 (   981 PWs)   bands (ev):

   -28.5869  -9.9960  -9.3549  -9.3453  10.0105  13.1455  14.7067  16.0530
    17.3511

     occupation numbers 
     1.0000   1.0000   1.0000   1.0000   1.0000   0.0000   0.0000   0.0000
     0.0000

          k = 0.8428-0.4214 0.8428 (   992 PWs)   bands (ev):

   -28.4925 -10.3786  -9.5042  -9.3670  11.2719  12.8572  14.3674  15.6128
    19.4049

     occupation numbers 
     1.0000   1.0000   1.0000   1.0000   1.0000   0.0000   0.0000   0.0000
     0.0000

          k = 0.6321-0.2107 0.6321 (   975 PWs)   bands (ev):

   -28.5160 -10.2762  -9.5521  -9.2909  11.1165  13.1710  14.1623  15.5841
    17.8316

     occupation numbers 
     1.0000   1.0000   1.0000   1.0000   1.0000   0.0000   0.0000   0.0000
     0.0000

          k = 0.4214 0.0000 0.4214 (   975 PWs)   bands (ev):

   -28.6327  -9.8388  -9.3914  -9.1910   9.4819  13.6549  14.9682  16.1495
    16.2657

     occupation numbers 
     1.0000   1.0000   1.0000   1.0000   1.0000   0.0000   0.0000   0.0000
     0.0000

          k = 0.0000 0.8428 0.0000 (  1002 PWs)   bands (ev):

   -28.5187 -10.1264  -9.4793  -9.4793  10.3429  12.3091  14.8544  17.6586
    17.6586

     occupation numbers 
     1.0000   1.0000   1.0000   1.0000   1.0000   0.0071   0.0000   0.0000
     0.0000

          k = 1.0535-0.2107 1.0535 (   987 PWs)   bands (ev):

   -28.4481 -10.2797  -9.6967  -9.5188  10.9033  12.1492  14.7158  17.5425
    19.8503

     occupation numbers 
     1.0000   1.0000   1.0000   1.0000   1.0000   0.2151   0.0000   0.0000
     0.0000

          k = 0.8428 0.0000 0.8428 (   981 PWs)   bands (ev):

   -28.4469 -10.0621 -10.0393  -9.4264  11.9803  12.3634  13.8940  16.6838
    18.3285

     occupation numbers 
     1.0000   1.0000   1.0000   1.0000   0.8332   0.0013   0.0000   0.0000
     0.0000

          k = 0.0000-1.2642 0.0000 (   982 PWs)   bands (ev):

   -28.4256 -10.4078  -9.5929  -9.5929  10.3403  11.6680  16.0144  19.0563
    19.4818

     occupation numbers 
     1.0000   1.0000   1.0000   1.0000   1.0000   1.0000   0.0000   0.0000
     0.0000

          k = 0.8428-0.4214 1.2642 (   983 PWs)   bands (ev):

   -28.4940 -10.1649  -9.6720  -9.4131  11.2534  12.8347  13.6573  16.7560
    17.7618

     occupation numbers 
     1.0000   1.0000   1.0000   1.0000   1.0000   0.0000   0.0000   0.0000
     0.0000

          k = 0.6321-0.2107 1.0535 (   988 PWs)   bands (ev):

   -28.4469 -10.1978  -9.8410  -9.4898  12.0111  12.5119  13.6685  16.3831
    18.7561

     occupation numbers 
     1.0000   1.0000   1.0000   1.0000   0.7408   0.0000   0.0000   0.0000
     0.0000

          k =-0.4214-1.2642 0.0000 (   978 PWs)   bands (ev):

   -28.4245 -10.2148  -9.8080  -9.6211  11.1973  12.4346  14.3773  17.1024
    19.4866

     occupation numbers 
     1.0000   1.0000   1.0000   1.0000   1.0000   0.0001   0.0000   0.0000
     0.0000

     the Fermi energy is    12.0733 ev

!    total energy              =     -74.61929336 Ry
     Harris-Foulkes estimate   =     -74.61929336 Ry
     estimated scf accuracy    <          3.1E-09 Ry

     The total energy is the sum of the following terms:

     one-electron contribution =     -20.62155721 Ry
     hartree contribution      =      13.86134649 Ry
     xc contribution           =     -12.09028204 Ry
     ewald contribution        =     -55.76762464 Ry
     smearing contrib. (-TS)   =      -0.00117595 Ry

     convergence has been achieved in  10 iterations

     negative rho (up, down):  6.203E-05 0.000E+00

     Forces acting on atoms (cartesian axes, Ry/au):

     atom    1 type  1   force =     0.00000000    0.00000000    0.00000000
     The non-local contrib.  to forces
     atom    1 type  1   force =    -0.00000000   -0.00000000    0.00000000
     The ionic contribution  to forces
     atom    1 type  1   force =     0.00000000    0.00000000    0.00000000
     The local contribution  to forces
     atom    1 type  1   force =    -0.00000000   -0.00000000    0.00000000
     The core correction contribution to forces
     atom    1 type  1   force =    -0.00000000   -0.00000000    0.00000000
     The Hubbard contrib.    to forces
     atom    1 type  1   force =     0.00000000    0.00000000    0.00000000
     The SCF correction term to forces
     atom    1 type  1   force =    -0.00000000   -0.00000000    0.00000000

     Total force =     0.000000     Total SCF correction =     0.000000


     Computing stress (Cartesian axis) and pressure


     negative rho (up, down):  6.203E-05 0.000E+00
          total   stress  (Ry/bohr**3)                   (kbar)     P=  355.34
   0.00241556   0.00000000  -0.00000000        355.34      0.00     -0.00
  -0.00000000   0.00241556   0.00000000         -0.00    355.34      0.00
  -0.00000000   0.00000000   0.00241556         -0.00      0.00    355.34

     kinetic stress (kbar)   9368.97      0.00     -0.00
                                0.00   9368.97     -0.00
                                0.00     -0.00   9368.97

     local   stress (kbar)   -984.87     -0.00     -0.00
                               -0.00   -984.87     -0.00
                               -0.00     -0.00   -984.87

     nonloc. stress (kbar)  10723.52      0.00     -0.00
                                0.00  10723.52     -0.00
                               -0.00     -0.00  10723.52

     hartree stress (kbar)   4892.60      0.00      0.00
                                0.00   4892.60      0.00
                                0.00      0.00   4892.60

     exc-cor stress (kbar)  -2176.94      0.00     -0.00
                                0.00  -2176.94      0.00
                               -0.00      0.00  -2176.94

     corecor stress (kbar)  -1783.81      0.00      0.00
                                0.00  -1783.81      0.00
                                0.00      0.00  -1783.81

     ewald   stress (kbar) -19684.12      0.00      0.00
                                0.00 -19684.12     -0.00
                                0.00     -0.00 -19684.12

     hubbard stress (kbar)      0.00      0.00      0.00
                                0.00      0.00      0.00
                                0.00      0.00      0.00

     london  stress (kbar)      0.00      0.00      0.00
                                0.00      0.00      0.00
                                0.00      0.00      0.00

     DFT-D3  stress (kbar)      0.00      0.00      0.00
                                0.00      0.00      0.00
                                0.00      0.00      0.00

     XDM     stress (kbar)      0.00      0.00      0.00
                                0.00      0.00      0.00
                                0.00      0.00      0.00

     dft-nl  stress (kbar)      0.00      0.00      0.00
                                0.00      0.00      0.00
                                0.00      0.00      0.00

     TS-vdW  stress (kbar)      0.00      0.00      0.00
[...]
A_2u   1.00  1.00  1.00 -1.00 -1.00 -1.00 -1.00 -1.00  1.00  1.00
E_u    2.00 -1.00  2.00  0.00  0.00 -2.00  1.00 -2.00  0.00  0.00
T_1u   3.00  0.00 -1.00  1.00 -1.00 -3.00  0.00  1.00 -1.00  1.00
T_2u   3.00  0.00 -1.00 -1.00  1.00 -3.00  0.00  1.00  1.00 -1.00

     the symmetry operations in each class and the name of the first element:

     E        1
          identity                                               
     8C3     17   19   20   18   24   21   22   23
          120 deg rotation - cart. axis [-1,-1,-1]               
     3C2      2    4    3
          180 deg rotation - cart. axis [0,0,1]                  
     6C4      7    8   15   16   12   11
           90 deg rotation - cart. axis [0,0,-1]                 
     6C2'     5    6   14   13   10    9
          180 deg rotation - cart. axis [1,1,0]                  
     i       25
          inversion                                              
     8S6     41   43   44   42   48   45   46   47
          inv. 120 deg rotation - cart. axis [-1,-1,-1]          
     3s_h    26   28   27
          inv. 180 deg rotation - cart. axis [0,0,1]             
     6S4     31   32   39   40   36   35
          inv.  90 deg rotation - cart. axis [0,0,-1]            
     6s_d    29   30   38   37   34   33
          inv. 180 deg rotation - cart. axis [1,1,0]             

   Cartesian axes

     site n.     atom                  positions (alat units)
         1           Ca  tau(   1) = (   0.0000000   0.0000000   0.0000000  )

   Crystallographic axes

     site n.     atom                  positions (cryst. coord.)
         1           Ca  tau(   1) = (  0.0000000  0.0000000  0.0000000  )

     number of k points=    16  gaussian smearing, width (Ry)=  0.0100
                       cart. coord. in units 2pi/alat
        k(    1) = (   0.0000000   0.0000000   0.0000000), wk =   0.0092593
        k(    2) = (  -0.2063429   0.2063429  -0.2063429), wk =   0.0740741
        k(    3) = (  -0.4126857   0.4126857  -0.4126857), wk =   0.0740741
        k(    4) = (   0.6190286  -0.6190286   0.6190286), wk =   0.0370370
        k(    5) = (   0.0000000   0.4126857  -0.0000000), wk =   0.0555556
        k(    6) = (  -0.2063429   0.6190286  -0.2063429), wk =   0.2222222
        k(    7) = (   0.8253715  -0.4126857   0.8253715), wk =   0.2222222
        k(    8) = (   0.6190286  -0.2063429   0.6190286), wk =   0.2222222
        k(    9) = (   0.4126857   0.0000000   0.4126857), wk =   0.1111111
        k(   10) = (   0.0000000   0.8253715  -0.0000000), wk =   0.0555556
        k(   11) = (   1.0317143  -0.2063429   1.0317143), wk =   0.2222222
        k(   12) = (   0.8253715   0.0000000   0.8253715), wk =   0.1111111
        k(   13) = (   0.0000000  -1.2380572   0.0000000), wk =   0.0277778
        k(   14) = (   0.8253715  -0.4126857   1.2380572), wk =   0.2222222
        k(   15) = (   0.6190286  -0.2063429   1.0317143), wk =   0.2222222
        k(   16) = (  -0.4126857  -1.2380572   0.0000000), wk =   0.1111111

                       cryst. coord.
        k(    1) = (   0.0000000   0.0000000   0.0000000), wk =   0.0092593
        k(    2) = (   0.0000000  -0.0000000   0.1666667), wk =   0.0740741
        k(    3) = (   0.0000000  -0.0000000   0.3333333), wk =   0.0740741
        k(    4) = (   0.0000000   0.0000000  -0.5000000), wk =   0.0370370
        k(    5) = (  -0.0000000   0.1666667   0.1666667), wk =   0.0555556
        k(    6) = (  -0.0000000   0.1666667   0.3333333), wk =   0.2222222
        k(    7) = (   0.0000000   0.1666667  -0.5000000), wk =   0.2222222
        k(    8) = (   0.0000000   0.1666667  -0.3333333), wk =   0.2222222
        k(    9) = (   0.0000000   0.1666667  -0.1666667), wk =   0.1111111
        k(   10) = (  -0.0000000   0.3333333   0.3333333), wk =   0.0555556
        k(   11) = (   0.0000000   0.3333333  -0.5000000), wk =   0.2222222
        k(   12) = (   0.0000000   0.3333333  -0.3333333), wk =   0.1111111
        k(   13) = (   0.0000000  -0.5000000  -0.5000000), wk =   0.0277778
        k(   14) = (   0.1666667   0.3333333  -0.5000000), wk =   0.2222222
        k(   15) = (   0.1666667   0.3333333  -0.3333333), wk =   0.2222222
        k(   16) = (   0.1666667  -0.5000000  -0.3333333), wk =   0.1111111

     Dense  grid:    13851 G-vectors     FFT dimensions: (  36,  36,  36)

     Smooth grid:     4111 G-vectors     FFT dimensions: (  24,  24,  24)

     Dynamical RAM for                 wfc:       0.07 MB

     Dynamical RAM for     wfc (w. buffer):       1.21 MB

     Dynamical RAM for           str. fact:       0.21 MB

     Dynamical RAM for           local pot:       0.20 MB

     Dynamical RAM for          nlocal pot:       0.14 MB

     Dynamical RAM for                qrad:       4.71 MB

     Dynamical RAM for          rho,v,vnew:       1.70 MB

     Dynamical RAM for               rhoin:       0.57 MB

     Dynamical RAM for            rho*nmix:       3.38 MB

     Dynamical RAM for           G-vectors:       0.82 MB

     Dynamical RAM for          h,s,v(r/c):       0.06 MB

     Dynamical RAM for          <psi|beta>:       0.00 MB

     Dynamical RAM for                 psi:       0.28 MB

     Dynamical RAM for                hpsi:       0.28 MB

     Dynamical RAM for                spsi:       0.28 MB

     Dynamical RAM for      wfcinit/wfcrot:       0.16 MB

     Dynamical RAM for           addusdens:      39.52 MB

     Dynamical RAM for          addusforce:      39.63 MB

     Dynamical RAM for         addusstress:      42.48 MB

     Estimated static dynamical RAM per process >      15.15 MB

     Estimated max dynamical RAM per process >      57.63 MB

     Check: negative/imaginary core charge=   -0.000004    0.000000

     Initial potential from superposition of free atoms
     Check: negative starting charge=   -0.000159

     starting charge    9.99454, renormalised to   10.00000

     negative rho (up, down):  1.588E-04 0.000E+00
     Starting wfcs are   10 randomized atomic wfcs

     total cpu time spent up to now is       54.6 secs

     Self-consistent Calculation

     iteration #  1     ecut=    35.00 Ry     beta= 0.40
     Davidson diagonalization with overlap
     ethr =  1.00E-06,  avg # of iterations =  6.8

     negative rho (up, down):  1.506E-04 0.000E+00

     total cpu time spent up to now is       55.1 secs

     total energy              =     -74.63861665 Ry
     Harris-Foulkes estimate   =     -74.63875511 Ry
     estimated scf accuracy    <       0.00395611 Ry

     iteration #  2     ecut=    35.00 Ry     beta= 0.40
     Davidson diagonalization with overlap
     ethr =  3.96E-05,  avg # of iterations =  1.0

     negative rho (up, down):  1.402E-04 0.000E+00

     total cpu time spent up to now is       55.4 secs

     total energy              =     -74.63863695 Ry
     Harris-Foulkes estimate   =     -74.63864795 Ry
     estimated scf accuracy    <       0.00134199 Ry

     iteration #  3     ecut=    35.00 Ry     beta= 0.40
     Davidson diagonalization with overlap
     ethr =  1.34E-05,  avg # of iterations =  1.0

     negative rho (up, down):  1.398E-04 0.000E+00

     total cpu time spent up to now is       55.7 secs

     total energy              =     -74.63865494 Ry
     Harris-Foulkes estimate   =     -74.63866094 Ry
     estimated scf accuracy    <       0.00001660 Ry

     iteration #  4     ecut=    35.00 Ry     beta= 0.40
     Davidson diagonalization with overlap
     ethr =  1.66E-07,  avg # of iterations =  2.5

     negative rho (up, down):  1.394E-04 0.000E+00

     total cpu time spent up to now is       56.0 secs

     total energy              =     -74.63866037 Ry
     Harris-Foulkes estimate   =     -74.63866018 Ry
     estimated scf accuracy    <       0.00000018 Ry

     iteration #  5     ecut=    35.00 Ry     beta= 0.40
     Davidson diagonalization with overlap
     ethr =  1.78E-09,  avg # of iterations =  2.9

     negative rho (up, down):  1.394E-04 0.000E+00

     total cpu time spent up to now is       56.3 secs

     total energy              =     -74.63866041 Ry
     Harris-Foulkes estimate   =     -74.63866044 Ry
     estimated scf accuracy    <       0.00000006 Ry

     iteration #  6     ecut=    35.00 Ry     beta= 0.40
     Davidson diagonalization with overlap
     ethr =  6.00E-10,  avg # of iterations =  2.4

     negative rho (up, down):  1.393E-04 0.000E+00

     total cpu time spent up to now is       56.6 secs

     End of self-consistent calculation

          k = 0.0000 0.0000 0.0000 (   531 PWs)   bands (ev):

   -29.6296 -10.0878 -10.0878 -10.0878   6.5035  14.3101  14.3101  14.3101
    16.5068

     occupation numbers 
     1.0000   1.0000   1.0000   1.0000   1.0000   0.0000   0.0000   0.0000
     0.0000

          k =-0.2063 0.2063-0.2063 (   525 PWs)   bands (ev):

   -29.5757 -10.3998 -10.1229 -10.1229   7.3430  13.5376  14.5818  14.5818
    16.2807

     occupation numbers 
     1.0000   1.0000   1.0000   1.0000   1.0000   0.0000   0.0000   0.0000
     0.0000

          k =-0.4127 0.4127-0.4127 (   516 PWs)   bands (ev):

   -29.4658 -10.9846 -10.1918 -10.1918   9.1128  12.6278  14.3456  14.3456
    17.0773

     occupation numbers 
     1.0000   1.0000   1.0000   1.0000   1.0000   0.0000   0.0000   0.0000
     0.0000

          k = 0.6190-0.6190 0.6190 (   502 PWs)   bands (ev):

   -29.4097 -11.2607 -10.2256 -10.2256   9.9012  12.6696  14.0511  14.0511
    17.9588

     occupation numbers 
     1.0000   1.0000   1.0000   1.0000   1.0000   0.0000   0.0000   0.0000
     0.0000

          k = 0.0000 0.4127-0.0000 (   528 PWs)   bands (ev):

   -29.5580 -10.3914 -10.1884 -10.1884   7.6053  13.1854  14.9097  14.9097
    15.2223

     occupation numbers 
     1.0000   1.0000   1.0000   1.0000   1.0000   0.0000   0.0000   0.0000
     0.0000

          k =-0.2063 0.6190-0.2063 (   522 PWs)   bands (ev):

   -29.4668 -10.8161 -10.2796 -10.2721   9.0827  12.3721  13.8699  15.1400
    16.3404

     occupation numbers 
     1.0000   1.0000   1.0000   1.0000   1.0000   0.0000   0.0000   0.0000
     0.0000

          k = 0.8254-0.4127 0.8254 (   524 PWs)   bands (ev):

   -29.3923 -11.1384 -10.4050 -10.2910  10.4585  11.9605  13.4884  14.7326
    18.0166

     occupation numbers 
     1.0000   1.0000   1.0000   1.0000   1.0000   0.0000   0.0000   0.0000
     0.0000

          k = 0.6190-0.2063 0.6190 (   513 PWs)   bands (ev):

   -29.4108 -11.0517 -10.4448 -10.2271  10.2227  12.2835  13.3391  14.7117
    16.8226

     occupation numbers 
     1.0000   1.0000   1.0000   1.0000   1.0000   0.0000   0.0000   0.0000
     0.0000

          k = 0.4127 0.0000 0.4127 (   521 PWs)   bands (ev):

   -29.5031 -10.6835 -10.3096 -10.1427   8.5463  12.8573  14.1201  15.2472
    15.3562

     occupation numbers 
     1.0000   1.0000   1.0000   1.0000   1.0000   0.0000   0.0000   0.0000
     0.0000

          k = 0.0000 0.8254-0.0000 (   512 PWs)   bands (ev):

   -29.4127 -10.9271 -10.3850 -10.3850   9.5214  11.6208  13.8498  16.6346
    16.6346

     occupation numbers 
     1.0000   1.0000   1.0000   1.0000   1.0000   0.0009   0.0000   0.0000
     0.0000

          k = 1.0317-0.2063 1.0317 (   513 PWs)   bands (ev):

   -29.3571 -11.0568 -10.5665 -10.4187  10.1913  11.4279  13.6641  16.5337
    18.1541

     occupation numbers 
     1.0000   1.0000   1.0000   1.0000   1.0000   0.1345   0.0000   0.0000
     0.0000

          k = 0.8254 0.0000 0.8254 (   510 PWs)   bands (ev):

   -29.3562 -10.8716 -10.8538 -10.3411  11.2297  11.5293  12.9519  15.7304
    17.2893

     occupation numbers 
     1.0000   1.0000   1.0000   1.0000   0.8304   0.0154   0.0000   0.0000
     0.0000

          k = 0.0000-1.2381 0.0000 (   524 PWs)   bands (ev):

   -29.3392 -11.1658 -10.4814 -10.4814   9.7056  11.0108  14.7629  17.9620
    18.3597

     occupation numbers 
     1.0000   1.0000   1.0000   1.0000   1.0000   0.9994   0.0000   0.0000
     0.0000

          k = 0.8254-0.4127 1.2381 (   512 PWs)   bands (ev):

   -29.3934 -10.9589 -10.5455 -10.3290  10.3633  12.0586  12.8227  15.7778
    16.7443

     occupation numbers 
     1.0000   1.0000   1.0000   1.0000   1.0000   0.0000   0.0000   0.0000
     0.0000

          k = 0.6190-0.2063 1.0317 (   520 PWs)   bands (ev):

   -29.3562 -10.9865 -10.6873 -10.3934  11.2346  11.6656  12.7847  15.4371
    17.6771

     occupation numbers 
     1.0000   1.0000   1.0000   1.0000   0.8172   0.0002   0.0000   0.0000
     0.0000

          k =-0.4127-1.2381 0.0000 (   508 PWs)   bands (ev):

   -29.3384 -11.0022 -10.6603 -10.5028  10.5038  11.6760  13.3705  16.1015
    18.3651

     occupation numbers 
     1.0000   1.0000   1.0000   1.0000   1.0000   0.0001   0.0000   0.0000
     0.0000

     the Fermi energy is    11.3216 ev

!    total energy              =     -74.63866043 Ry
     Harris-Foulkes estimate   =     -74.63866043 Ry
     estimated scf accuracy    <          6.7E-09 Ry

     The total energy is the sum of the following terms:

     one-electron contribution =     -22.35530533 Ry
     hartree contribution      =      14.38561066 Ry
     xc contribution           =     -12.05379545 Ry
     ewald contribution        =     -54.61418153 Ry
     smearing contrib. (-TS)   =      -0.00098878 Ry

     convergence has been achieved in   6 iterations

     negative rho (up, down):  1.393E-04 0.000E+00

     Forces acting on atoms (cartesian axes, Ry/au):

     atom    1 type  1   force =     0.00000000    0.00000000    0.00000000
     The non-local contrib.  to forces
     atom    1 type  1   force =     0.00000000    0.00000000   -0.00000000
     The ionic contribution  to forces
     atom    1 type  1   force =     0.00000000    0.00000000    0.00000000
     The local contribution  to forces
     atom    1 type  1   force =    -0.00000000    0.00000000    0.00000000
     The core correction contribution to forces
     atom    1 type  1   force =    -0.00000000    0.00000000   -0.00000000
     The Hubbard contrib.    to forces
     atom    1 type  1   force =     0.00000000    0.00000000    0.00000000
     The SCF correction term to forces
     atom    1 type  1   force =    -0.00000000   -0.00000000    0.00000000

     Total force =     0.000000     Total SCF correction =     0.000000


     Computing stress (Cartesian axis) and pressure


     negative rho (up, down):  1.393E-04 0.000E+00
          total   stress  (Ry/bohr**3)                   (kbar)     P=  298.89
   0.00203180   0.00000000   0.00000000        298.89      0.00      0.00
  -0.00000000   0.00203180   0.00000000         -0.00    298.89      0.00
   0.00000000   0.00000000   0.00203180          0.00      0.00    298.89

     kinetic stress (kbar)   8742.50     -0.00     -0.00
                               -0.00   8742.50      0.00
                               -0.00      0.00   8742.50

     local   stress (kbar)  -1470.91      0.00      0.00
                                0.00  -1470.91     -0.00
                                0.00     -0.00  -1470.91

     nonloc. stress (kbar)  10073.44      0.00      0.00
                                0.00  10073.44     -0.00
                                0.00     -0.00  10073.44

     hartree stress (kbar)   4769.05     -0.00     -0.00
                               -0.00   4769.05      0.00
                               -0.00      0.00   4769.05

     exc-cor stress (kbar)  -2034.58     -0.00      0.00
                               -0.00  -2034.58      0.00
                                0.00      0.00  -2034.58

     corecor stress (kbar)  -1675.17      0.00      0.00
                                0.00  -1675.17     -0.00
                                0.00     -0.00  -1675.17

     ewald   stress (kbar) -18105.45     -0.00     -0.00
                               -0.00 -18105.45     -0.00
                               -0.00     -0.00 -18105.45

     hubbard stress (kbar)      0.00      0.00      0.00
                                0.00      0.00      0.00
                                0.00      0.00      0.00

     london  stress (kbar)      0.00      0.00      0.00
                                0.00      0.00      0.00
                                0.00      0.00      0.00

     DFT-D3  stress (kbar)      0.00      0.00      0.00
                                0.00      0.00      0.00
                                0.00      0.00      0.00

     XDM     stress (kbar)      0.00      0.00      0.00
                                0.00      0.00      0.00
                                0.00      0.00      0.00

     dft-nl  stress (kbar)      0.00      0.00      0.00
                                0.00      0.00      0.00
                                0.00      0.00      0.00

     TS-vdW  stress (kbar)      0.00      0.00      0.00
                                0.00      0.00      0.00
                                0.00      0.00      0.00



     Writing output data file Ca.save/
 
     init_run     :      2.41s CPU      2.51s WALL (       2 calls)
     electrons    :     35.05s CPU     37.08s WALL (       7 calls)
     update_pot   :      4.62s CPU      4.63s WALL (       5 calls)
     forces       :      3.74s CPU      3.84s WALL (       7 calls)
     stress       :      7.78s CPU      8.07s WALL (       7 calls)

     Called by init_run:
     wfcinit      :      0.22s CPU      0.23s WALL (       2 calls)
     wfcinit:atom :      0.01s CPU      0.01s WALL (      32 calls)
     wfcinit:wfcr :      0.20s CPU      0.20s WALL (      32 calls)
     potinit      :      0.28s CPU      0.29s WALL (       2 calls)
     hinit0       :      1.80s CPU      1.81s WALL (       2 calls)

     Called by electrons:
     c_bands      :     21.84s CPU     22.13s WALL (      64 calls)
     sum_band     :      7.39s CPU      8.26s WALL (      64 calls)
     v_of_rho     :      2.95s CPU      2.97s WALL (      70 calls)
     v_h          :      0.12s CPU      0.12s WALL (      70 calls)
     v_xc         :      3.37s CPU      3.39s WALL (      84 calls)
     newd         :      3.03s CPU      3.98s WALL (      70 calls)
     mix_rho      :      0.25s CPU      0.26s WALL (      64 calls)

     Called by c_bands:
     init_us_2    :      0.69s CPU      0.70s WALL (    2304 calls)
     cegterg      :     20.33s CPU     20.53s WALL (    1024 calls)

     Called by sum_band:
     sum_band:bec :      0.01s CPU      0.01s WALL (    1024 calls)
     addusdens    :      3.44s CPU      4.27s WALL (      64 calls)

     Called by *egterg:
     h_psi        :     17.97s CPU     18.13s WALL (    3646 calls)
     s_psi        :      0.36s CPU      0.37s WALL (    3646 calls)
     g_psi        :      0.12s CPU      0.12s WALL (    2590 calls)
     cdiaghg      :      0.56s CPU      0.57s WALL (    3518 calls)
     cegterg:over :      0.52s CPU      0.53s WALL (    2590 calls)
     cegterg:upda :      0.41s CPU      0.41s WALL (    2590 calls)
     cegterg:last :      0.20s CPU      0.20s WALL (    1112 calls)

     Called by h_psi:
     h_psi:pot    :     17.92s CPU     18.07s WALL (    3646 calls)
     h_psi:calbec :      0.37s CPU      0.38s WALL (    3646 calls)
     vloc_psi     :     17.15s CPU     17.28s WALL (    3646 calls)
     add_vuspsi   :      0.37s CPU      0.38s WALL (    3646 calls)

     General routines
     calbec       :      0.54s CPU      0.55s WALL (    5230 calls)
     fft          :      1.42s CPU      1.42s WALL (    1084 calls)
     ffts         :      0.04s CPU      0.04s WALL (     134 calls)
     fftw         :     18.69s CPU     18.79s WALL (   61314 calls)
     interpolate  :      0.13s CPU      0.13s WALL (      70 calls)
 
 
     PWSCF        :    54.21s CPU        56.95s WALL

 
   This run was terminated on:  17:16:25   1Apr2021            

=------------------------------------------------------------------------------=
   JOB DONE.
=------------------------------------------------------------------------------=
