
     Program PWSCF v.6.3MaX starts on  2Apr2021 at 16:54: 5 

     This program is part of the open-source Quantum ESPRESSO suite
     for quantum simulation of materials; please cite
         "P. Giannozzi et al., J. Phys.:Condens. Matter 21 395502 (2009);
         "P. Giannozzi et al., J. Phys.:Condens. Matter 29 465901 (2017);
          URL http://www.quantum-espresso.org", 
     in publications or presentations arising from this work. More details at
     http://www.quantum-espresso.org/quote

     Serial version
     Waiting for input...
     Reading input from standard input

     Current dimensions of program PWSCF are:
     Max number of different atomic species (ntypx) = 10
     Max number of k-points (npk) =  40000
     Max angular momentum in pseudopotentials (lmaxx) =  3
 
     G-vector sticks info
     --------------------
     sticks:   dense  smooth     PW     G-vecs:    dense   smooth      PW
     Sum        1045     465    171                21137     6281    1435
 


     bravais-lattice index     =            7
     lattice parameter (alat)  =       5.8736  a.u.
     unit-cell volume          =     223.5000 (a.u.)^3
     number of atoms/cell      =            3
     number of atomic types    =            2
     number of electrons       =        22.00
     number of Kohn-Sham states=           15
     kinetic-energy cutoff     =      35.0000  Ry
     charge density cutoff     =     315.0000  Ry
     convergence threshold     =      1.0E-06
     mixing beta               =       0.4000
     number of iterations used =            8  plain     mixing
     Exchange-correlation      = SLA PW PBE PBE ( 1  4  3  4 0 0)
     nstep                     =          100


     celldm(1)=   5.873592  celldm(2)=   0.000000  celldm(3)=   2.205953
     celldm(4)=   0.000000  celldm(5)=   0.000000  celldm(6)=   0.000000

     crystal axes: (cart. coord. in units of alat)
               a(1) = (   0.500000  -0.500000   1.102976 )  
               a(2) = (   0.500000   0.500000   1.102976 )  
               a(3) = (  -0.500000  -0.500000   1.102976 )  

     reciprocal axes: (cart. coord. in units 2 pi/alat)
               b(1) = (  1.000000 -1.000000  0.000000 )  
               b(2) = (  0.000000  1.000000  0.453319 )  
               b(3) = ( -1.000000  0.000000  0.453319 )  


     PseudoPot. # 1 for Ca read from file:
     ../pseudo/Ca.pbe-nsp-van.UPF
     MD5 check sum: cdab9c70410076c6adf7f3c9fd3601e0
     Pseudo is Ultrasoft + core correction, Zval = 10.0
     Generated by new atomic code, or converted to UPF format
     Using radial grid of  845 points,  6 beta functions with: 
                l(1) =   0
                l(2) =   0
                l(3) =   1
                l(4) =   1
                l(5) =   2
                l(6) =   2
     Q(r) pseudized with  6 coefficients,  rinner =    1.200   1.200   1.200
                                                       1.200   1.200

     PseudoPot. # 2 for O  read from file:
     ../pseudo/O.pbe-van_ak.UPF
     MD5 check sum: 572909515f9aa9498032b6eb5528d5f9
     Pseudo is Ultrasoft, Zval =  6.0
     Generated by new atomic code, or converted to UPF format
     Using radial grid of  737 points,  4 beta functions with: 
                l(1) =   0
                l(2) =   0
                l(3) =   1
                l(4) =   1
     Q(r) pseudized with  8 coefficients,  rinner =    0.800   0.800   0.800


     atomic species   valence    mass     pseudopotential
        Ca            10.00    40.07800     Ca( 1.00)
        O              6.00    15.99940     O ( 1.00)

     16 Sym. Ops., with inversion, found


                                    s                        frac. trans.

      isym =  1     identity                                     

 cryst.   s( 1) = (     1          0          0      )
                  (     0          1          0      )
                  (     0          0          1      )

 cart.    s( 1) = (  1.0000000  0.0000000  0.0000000 )
                  (  0.0000000  1.0000000  0.0000000 )
                  (  0.0000000  0.0000000  1.0000000 )


      isym =  2     180 deg rotation - cart. axis [0,0,1]        

 cryst.   s( 2) = (    -1          1          1      )
                  (     0          0          1      )
                  (     0          1          0      )

 cart.    s( 2) = ( -1.0000000  0.0000000  0.0000000 )
                  (  0.0000000 -1.0000000  0.0000000 )
                  (  0.0000000  0.0000000  1.0000000 )


      isym =  3     180 deg rotation - cart. axis [0,1,0]        

 cryst.   s( 3) = (     0         -1          0      )
                  (    -1          0          0      )
                  (     1         -1         -1      )

 cart.    s( 3) = ( -1.0000000  0.0000000  0.0000000 )
                  (  0.0000000  1.0000000  0.0000000 )
                  (  0.0000000  0.0000000 -1.0000000 )


      isym =  4     180 deg rotation - cart. axis [1,0,0]        

 cryst.   s( 4) = (     0          0         -1      )
                  (     1         -1         -1      )
                  (    -1          0          0      )

 cart.    s( 4) = (  1.0000000  0.0000000  0.0000000 )
                  (  0.0000000 -1.0000000  0.0000000 )
                  (  0.0000000  0.0000000 -1.0000000 )


      isym =  5     180 deg rotation - cart. axis [1,1,0]        

 cryst.   s( 5) = (    -1          0          0      )
                  (     0          0         -1      )
                  (     0         -1          0      )

 cart.    s( 5) = (  0.0000000  1.0000000  0.0000000 )
                  (  1.0000000  0.0000000  0.0000000 )
                  (  0.0000000  0.0000000 -1.0000000 )


      isym =  6     180 deg rotation - cart. axis [1,-1,0]       

 cryst.   s( 6) = (     1         -1         -1      )
                  (     0         -1          0      )
                  (     0          0         -1      )

 cart.    s( 6) = (  0.0000000 -1.0000000  0.0000000 )
                  ( -1.0000000  0.0000000  0.0000000 )
                  (  0.0000000  0.0000000 -1.0000000 )


      isym =  7      90 deg rotation - cart. axis [0,0,-1]       

 cryst.   s( 7) = (     0          0          1      )
                  (     1          0          0      )
                  (    -1          1          1      )

 cart.    s( 7) = (  0.0000000  1.0000000  0.0000000 )
                  ( -1.0000000  0.0000000  0.0000000 )
                  (  0.0000000  0.0000000  1.0000000 )


      isym =  8      90 deg rotation - cart. axis [0,0,1]        

 cryst.   s( 8) = (     0          1          0      )
                  (    -1          1          1      )
                  (     1          0          0      )

 cart.    s( 8) = (  0.0000000 -1.0000000  0.0000000 )
                  (  1.0000000  0.0000000  0.0000000 )
                  (  0.0000000  0.0000000  1.0000000 )


      isym =  9     inversion                                    

 cryst.   s( 9) = (    -1          0          0      )
                  (     0         -1          0      )
                  (     0          0         -1      )

 cart.    s( 9) = ( -1.0000000  0.0000000  0.0000000 )
                  (  0.0000000 -1.0000000  0.0000000 )
                  (  0.0000000  0.0000000 -1.0000000 )


      isym = 10     inv. 180 deg rotation - cart. axis [0,0,1]   

 cryst.   s(10) = (     1         -1         -1      )
                  (     0          0         -1      )
                  (     0         -1          0      )

 cart.    s(10) = (  1.0000000  0.0000000  0.0000000 )
                  (  0.0000000  1.0000000  0.0000000 )
                  (  0.0000000  0.0000000 -1.0000000 )


      isym = 11     inv. 180 deg rotation - cart. axis [0,1,0]   

 cryst.   s(11) = (     0          1          0      )
                  (     1          0          0      )
                  (    -1          1          1      )

 cart.    s(11) = (  1.0000000  0.0000000  0.0000000 )
                  (  0.0000000 -1.0000000  0.0000000 )
                  (  0.0000000  0.0000000  1.0000000 )


      isym = 12     inv. 180 deg rotation - cart. axis [1,0,0]   

 cryst.   s(12) = (     0          0          1      )
                  (    -1          1          1      )
                  (     1          0          0      )

 cart.    s(12) = ( -1.0000000  0.0000000  0.0000000 )
                  (  0.0000000  1.0000000  0.0000000 )
                  (  0.0000000  0.0000000  1.0000000 )


      isym = 13     inv. 180 deg rotation - cart. axis [1,1,0]   

 cryst.   s(13) = (     1          0          0      )
                  (     0          0          1      )
                  (     0          1          0      )

 cart.    s(13) = (  0.0000000 -1.0000000  0.0000000 )
                  ( -1.0000000  0.0000000  0.0000000 )
                  (  0.0000000  0.0000000  1.0000000 )


      isym = 14     inv. 180 deg rotation - cart. axis [1,-1,0]  

 cryst.   s(14) = (    -1          1          1      )
                  (     0          1          0      )
                  (     0          0          1      )

 cart.    s(14) = (  0.0000000  1.0000000  0.0000000 )
                  (  1.0000000  0.0000000  0.0000000 )
                  (  0.0000000  0.0000000  1.0000000 )


      isym = 15     inv.  90 deg rotation - cart. axis [0,0,-1]  

 cryst.   s(15) = (     0          0         -1      )
                  (    -1          0          0      )
                  (     1         -1         -1      )

 cart.    s(15) = (  0.0000000 -1.0000000  0.0000000 )
                  (  1.0000000  0.0000000  0.0000000 )
                  (  0.0000000  0.0000000 -1.0000000 )


      isym = 16     inv.  90 deg rotation - cart. axis [0,0,1]   

 cryst.   s(16) = (     0         -1          0      )
                  (     1         -1         -1      )
                  (    -1          0          0      )

 cart.    s(16) = (  0.0000000  1.0000000  0.0000000 )
                  ( -1.0000000  0.0000000  0.0000000 )
                  (  0.0000000  0.0000000 -1.0000000 )


     point group D_4h(4/mmm)
     there are 10 classes
     the character table:

       E     2C4   C2    2C2'  2C2'' i     2S4   s_h   2s_v  2s_d 
A_1g   1.00  1.00  1.00  1.00  1.00  1.00  1.00  1.00  1.00  1.00
A_2g   1.00  1.00  1.00 -1.00 -1.00  1.00  1.00  1.00 -1.00 -1.00
B_1g   1.00 -1.00  1.00  1.00 -1.00  1.00 -1.00  1.00  1.00 -1.00
B_2g   1.00 -1.00  1.00 -1.00  1.00  1.00 -1.00  1.00 -1.00  1.00
E_g    2.00  0.00 -2.00  0.00  0.00  2.00  0.00 -2.00  0.00  0.00
A_1u   1.00  1.00  1.00  1.00  1.00 -1.00 -1.00 -1.00 -1.00 -1.00
A_2u   1.00  1.00  1.00 -1.00 -1.00 -1.00 -1.00 -1.00  1.00  1.00
B_1u   1.00 -1.00  1.00  1.00 -1.00 -1.00  1.00 -1.00 -1.00  1.00
B_2u   1.00 -1.00  1.00 -1.00  1.00 -1.00  1.00 -1.00  1.00 -1.00
E_u    2.00  0.00 -2.00  0.00  0.00 -2.00  0.00  2.00  0.00  0.00

     the symmetry operations in each class and the name of the first element:

     E        1
          identity                                               
     2C4      7    8
           90 deg rotation - cart. axis [0,0,-1]                 
     C2       2
          180 deg rotation - cart. axis [0,0,1]                  
     2C2'     3    4
          180 deg rotation - cart. axis [0,1,0]                  
     2C2''    5    6
          180 deg rotation - cart. axis [1,1,0]                  
     i        9
          inversion                                              
     2S4     15   16
          inv.  90 deg rotation - cart. axis [0,0,-1]            
     s_h     10
          inv. 180 deg rotation - cart. axis [0,0,1]             
     2s_v    11   12
          inv. 180 deg rotation - cart. axis [0,1,0]             
     2s_d    13   14
          inv. 180 deg rotation - cart. axis [1,1,0]             

   Cartesian axes

     site n.     atom                  positions (alat units)
         1           Ca  tau(   1) = (   0.0000000   0.0000000   1.1029765  )
         2           O   tau(   2) = (   0.0000000   0.0000000   1.9662982  )
         3           O   tau(   3) = (   0.0000000   0.0000000   0.2396547  )

   Crystallographic axes

     site n.     atom                  positions (cryst. coord.)
         1           Ca  tau(   1) = (  0.0000000  0.5000000  0.5000000  )
         2           O   tau(   2) = (  0.0000000  0.8913600  0.8913600  )
         3           O   tau(   3) = (  0.0000000  0.1086400  0.1086400  )

     number of k points=    54  gaussian smearing, width (Ry)=  0.0100
                       cart. coord. in units 2pi/alat
        k(    1) = (   0.0000000   0.0000000   0.0000000), wk =   0.0138889
        k(    2) = (  -0.2500000   0.0000000   0.1133297), wk =   0.0277778
        k(    3) = (   0.5000000   0.0000000  -0.2266594), wk =   0.0555556
        k(    4) = (   0.0000000   0.1666667   0.0755531), wk =   0.0555556
        k(    5) = (  -0.2500000   0.1666667   0.1888828), wk =   0.0277778
        k(    6) = (   0.5000000   0.1666667  -0.1511063), wk =   0.1111111
        k(    7) = (   0.2500000   0.1666667  -0.0377766), wk =   0.0277778
        k(    8) = (   0.0000000   0.3333333   0.1511063), wk =   0.0555556
        k(    9) = (  -0.2500000   0.3333333   0.2644360), wk =   0.0277778
        k(   10) = (   0.5000000   0.3333333  -0.0755531), wk =   0.1111111
        k(   11) = (   0.2500000   0.3333333   0.0377766), wk =   0.0277778
        k(   12) = (  -0.2500000  -0.5000000  -0.1133297), wk =   0.0555556
        k(   13) = (   0.5000000  -0.5000000  -0.4533188), wk =   0.0277778
        k(   14) = (   0.1666667  -0.1666667   0.0000000), wk =   0.0277778
        k(   15) = (  -0.0833333  -0.1666667   0.1133297), wk =   0.0277778
        k(   16) = (   0.6666667  -0.1666667  -0.2266594), wk =   0.1111111
        k(   17) = (   0.4166667  -0.1666667  -0.1133297), wk =   0.0277778
        k(   18) = (  -0.0833333   0.0000000   0.1888828), wk =   0.0277778
        k(   19) = (   0.6666667   0.0000000  -0.1511063), wk =   0.0555556
        k(   20) = (   0.4166667   0.0000000  -0.0377766), wk =   0.0277778
        k(   21) = (   0.1666667   0.1666667   0.1511063), wk =   0.0277778
        k(   22) = (  -0.0833333   0.1666667   0.2644360), wk =   0.0277778
        k(   23) = (   0.6666667   0.1666667  -0.0755531), wk =   0.0555556
        k(   24) = (   0.4166667   0.1666667   0.0377766), wk =   0.0277778
        k(   25) = (  -0.0833333  -0.6666667  -0.1133297), wk =   0.0277778
        k(   26) = (   0.6666667  -0.6666667  -0.4533188), wk =   0.0277778
        k(   27) = (   0.4166667  -0.6666667  -0.3399891), wk =   0.0277778
        k(   28) = (  -0.0833333  -0.5000000  -0.0377766), wk =   0.0555556
        k(   29) = (   0.4166667  -0.5000000  -0.2644360), wk =   0.0555556
        k(   30) = (   0.1666667  -0.3333333  -0.0755531), wk =   0.0555556
        k(   31) = (  -0.0833333  -0.3333333   0.0377766), wk =   0.0277778
        k(   32) = (   0.6666667  -0.3333333  -0.3022125), wk =   0.0277778
        k(   33) = (   0.4166667  -0.3333333  -0.1888828), wk =   0.0277778
        k(   34) = (   0.3333333  -0.3333333   0.0000000), wk =   0.0277778
        k(   35) = (   0.0833333  -0.3333333   0.1133297), wk =   0.0277778
        k(   36) = (   0.5833333  -0.3333333  -0.1133297), wk =   0.0277778
        k(   37) = (   0.0833333  -0.1666667   0.1888828), wk =   0.0277778
        k(   38) = (   0.8333333  -0.1666667  -0.1511063), wk =   0.0277778
        k(   39) = (   0.5833333  -0.1666667  -0.0377766), wk =   0.0277778
        k(   40) = (   0.0833333   0.0000000   0.2644360), wk =   0.0277778
        k(   41) = (   0.8333333   0.0000000  -0.0755531), wk =   0.0555556
        k(   42) = (   0.5833333   0.0000000   0.0377766), wk =   0.0277778
        k(   43) = (   0.0833333  -0.8333333  -0.1133297), wk =   0.0277778
        k(   44) = (   0.8333333  -0.8333333  -0.4533188), wk =   0.0277778
        k(   45) = (   0.5833333  -0.8333333  -0.3399891), wk =   0.0277778
        k(   46) = (   0.3333333  -0.6666667  -0.1511063), wk =   0.0277778
        k(   47) = (   0.0833333  -0.6666667  -0.0377766), wk =   0.0277778
        k(   48) = (   0.5833333  -0.6666667  -0.2644360), wk =   0.0277778
        k(   49) = (  -0.7500000   0.6666667   0.1888828), wk =   0.0277778
        k(   50) = (  -0.2500000   0.6666667  -0.0377766), wk =   0.0277778
        k(   51) = (  -0.7500000   0.8333333   0.2644360), wk =   0.0277778
        k(   52) = (  -0.2500000   0.8333333   0.0377766), wk =   0.0277778
        k(   53) = (  -0.7500000   0.0000000  -0.1133297), wk =   0.0277778
        k(   54) = (   0.0000000   0.0000000  -0.4533188), wk =   0.0138889

                       cryst. coord.
        k(    1) = (   0.0000000   0.0000000   0.0000000), wk =   0.0138889
        k(    2) = (   0.0000000   0.0000000   0.2500000), wk =   0.0277778
        k(    3) = (   0.0000000   0.0000000  -0.5000000), wk =   0.0555556
        k(    4) = (   0.0000000   0.1666667   0.0000000), wk =   0.0555556
        k(    5) = (   0.0000000   0.1666667   0.2500000), wk =   0.0277778
        k(    6) = (   0.0000000   0.1666667  -0.5000000), wk =   0.1111111
        k(    7) = (   0.0000000   0.1666667  -0.2500000), wk =   0.0277778
        k(    8) = (   0.0000000   0.3333333   0.0000000), wk =   0.0555556
        k(    9) = (   0.0000000   0.3333333   0.2500000), wk =   0.0277778
        k(   10) = (   0.0000000   0.3333333  -0.5000000), wk =   0.1111111
        k(   11) = (   0.0000000   0.3333333  -0.2500000), wk =   0.0277778
        k(   12) = (   0.0000000  -0.5000000   0.2500000), wk =   0.0555556
        k(   13) = (   0.0000000  -0.5000000  -0.5000000), wk =   0.0277778
        k(   14) = (   0.1666667   0.0000000   0.0000000), wk =   0.0277778
        k(   15) = (   0.1666667   0.0000000   0.2500000), wk =   0.0277778
        k(   16) = (   0.1666667   0.0000000  -0.5000000), wk =   0.1111111
        k(   17) = (   0.1666667  -0.0000000  -0.2500000), wk =   0.0277778
        k(   18) = (   0.1666667   0.1666667   0.2500000), wk =   0.0277778
        k(   19) = (   0.1666667   0.1666667  -0.5000000), wk =   0.0555556
        k(   20) = (   0.1666667   0.1666667  -0.2500000), wk =   0.0277778
        k(   21) = (   0.1666667   0.3333333   0.0000000), wk =   0.0277778
        k(   22) = (   0.1666667   0.3333333   0.2500000), wk =   0.0277778
        k(   23) = (   0.1666667   0.3333333  -0.5000000), wk =   0.0555556
        k(   24) = (   0.1666667   0.3333333  -0.2500000), wk =   0.0277778
        k(   25) = (   0.1666667  -0.5000000   0.2500000), wk =   0.0277778
        k(   26) = (   0.1666667  -0.5000000  -0.5000000), wk =   0.0277778
        k(   27) = (   0.1666667  -0.5000000  -0.2500000), wk =   0.0277778
        k(   28) = (   0.1666667  -0.3333333   0.2500000), wk =   0.0555556
        k(   29) = (   0.1666667  -0.3333333  -0.2500000), wk =   0.0555556
        k(   30) = (   0.1666667  -0.1666667  -0.0000000), wk =   0.0555556
        k(   31) = (   0.1666667  -0.1666667   0.2500000), wk =   0.0277778
        k(   32) = (   0.1666667  -0.1666667  -0.5000000), wk =   0.0277778
        k(   33) = (   0.1666667  -0.1666667  -0.2500000), wk =   0.0277778
        k(   34) = (   0.3333333   0.0000000   0.0000000), wk =   0.0277778
        k(   35) = (   0.3333333   0.0000000   0.2500000), wk =   0.0277778
        k(   36) = (   0.3333333  -0.0000000  -0.2500000), wk =   0.0277778
        k(   37) = (   0.3333333   0.1666667   0.2500000), wk =   0.0277778
        k(   38) = (   0.3333333   0.1666667  -0.5000000), wk =   0.0277778
        k(   39) = (   0.3333333   0.1666667  -0.2500000), wk =   0.0277778
        k(   40) = (   0.3333333   0.3333333   0.2500000), wk =   0.0277778
        k(   41) = (   0.3333333   0.3333333  -0.5000000), wk =   0.0555556
        k(   42) = (   0.3333333   0.3333333  -0.2500000), wk =   0.0277778
        k(   43) = (   0.3333333  -0.5000000   0.2500000), wk =   0.0277778
        k(   44) = (   0.3333333  -0.5000000  -0.5000000), wk =   0.0277778
        k(   45) = (   0.3333333  -0.5000000  -0.2500000), wk =   0.0277778
        k(   46) = (   0.3333333  -0.3333333   0.0000000), wk =   0.0277778
        k(   47) = (   0.3333333  -0.3333333   0.2500000), wk =   0.0277778
        k(   48) = (   0.3333333  -0.3333333  -0.2500000), wk =   0.0277778
        k(   49) = (  -0.5000000   0.1666667   0.2500000), wk =   0.0277778
        k(   50) = (  -0.5000000   0.1666667  -0.2500000), wk =   0.0277778
        k(   51) = (  -0.5000000   0.3333333   0.2500000), wk =   0.0277778
        k(   52) = (  -0.5000000   0.3333333  -0.2500000), wk =   0.0277778
        k(   53) = (  -0.5000000  -0.5000000   0.2500000), wk =   0.0277778
        k(   54) = (  -0.5000000  -0.5000000  -0.5000000), wk =   0.0138889

     Dense  grid:    21137 G-vectors     FFT dimensions: (  45,  45,  45)

     Smooth grid:     6281 G-vectors     FFT dimensions: (  30,  30,  30)

     Dynamical RAM for                 wfc:       0.18 MB

     Dynamical RAM for     wfc (w. buffer):       9.83 MB

     Dynamical RAM for           str. fact:       0.65 MB

     Dynamical RAM for           local pot:       0.00 MB

     Dynamical RAM for          nlocal pot:       0.41 MB

     Dynamical RAM for                qrad:       5.33 MB

     Dynamical RAM for          rho,v,vnew:       3.05 MB

     Dynamical RAM for               rhoin:       1.02 MB

     Dynamical RAM for            rho*nmix:       5.16 MB

     Dynamical RAM for           G-vectors:       1.26 MB

     Dynamical RAM for          h,s,v(r/c):       0.16 MB

     Dynamical RAM for          <psi|beta>:       0.01 MB

     Dynamical RAM for                 psi:       0.72 MB

     Dynamical RAM for                hpsi:       0.72 MB

     Dynamical RAM for                spsi:       0.72 MB

     Dynamical RAM for      wfcinit/wfcrot:       0.44 MB

     Dynamical RAM for           addusdens:      60.63 MB

     Dynamical RAM for          addusforce:      62.42 MB

     Dynamical RAM for         addusstress:      64.83 MB

     Estimated static dynamical RAM per process >      31.14 MB

     Estimated max dynamical RAM per process >      95.97 MB

     Check: negative/imaginary core charge=   -0.000004    0.000000

     Initial potential from superposition of free atoms
     Check: negative starting charge=   -0.000212

     starting charge   21.99454, renormalised to   22.00000

     negative rho (up, down):  2.124E-04 0.000E+00
     Starting wfcs are   18 randomized atomic wfcs

     total cpu time spent up to now is        3.1 secs

     Self-consistent Calculation

     iteration #  1     ecut=    35.00 Ry     beta= 0.40
     Davidson diagonalization with overlap
     ethr =  1.00E-02,  avg # of iterations =  2.0

     negative rho (up, down):  2.201E-04 0.000E+00

     total cpu time spent up to now is        5.6 secs

     total energy              =    -138.93851411 Ry
     Harris-Foulkes estimate   =    -139.05015660 Ry
     estimated scf accuracy    <       0.27634412 Ry

     iteration #  2     ecut=    35.00 Ry     beta= 0.40
     Davidson diagonalization with overlap
     ethr =  1.26E-03,  avg # of iterations =  2.1

     negative rho (up, down):  2.080E-04 0.000E+00

     total cpu time spent up to now is        8.2 secs

     total energy              =    -138.98764428 Ry
     Harris-Foulkes estimate   =    -138.99166616 Ry
     estimated scf accuracy    <       0.02598991 Ry

     iteration #  3     ecut=    35.00 Ry     beta= 0.40
     Davidson diagonalization with overlap
     ethr =  1.18E-04,  avg # of iterations =  2.4

     negative rho (up, down):  2.006E-04 0.000E+00

     total cpu time spent up to now is       10.8 secs

     total energy              =    -138.98894679 Ry
     Harris-Foulkes estimate   =    -138.98956046 Ry
     estimated scf accuracy    <       0.00705459 Ry

     iteration #  4     ecut=    35.00 Ry     beta= 0.40
     Davidson diagonalization with overlap
     ethr =  3.21E-05,  avg # of iterations =  3.0

     negative rho (up, down):  2.016E-04 0.000E+00

     total cpu time spent up to now is       13.3 secs

     total energy              =    -138.98954022 Ry
     Harris-Foulkes estimate   =    -138.98947326 Ry
     estimated scf accuracy    <       0.00009726 Ry

     iteration #  5     ecut=    35.00 Ry     beta= 0.40
     Davidson diagonalization with overlap
     ethr =  4.42E-07,  avg # of iterations =  5.2

     negative rho (up, down):  2.022E-04 0.000E+00

     total cpu time spent up to now is       17.3 secs

     total energy              =    -138.98962171 Ry
     Harris-Foulkes estimate   =    -138.98961226 Ry
     estimated scf accuracy    <       0.00001876 Ry

     iteration #  6     ecut=    35.00 Ry     beta= 0.40
     Davidson diagonalization with overlap
     ethr =  8.53E-08,  avg # of iterations =  2.0

     negative rho (up, down):  2.021E-04 0.000E+00

     total cpu time spent up to now is       19.8 secs

     total energy              =    -138.98962728 Ry
     Harris-Foulkes estimate   =    -138.98962392 Ry
     estimated scf accuracy    <       0.00000168 Ry

     iteration #  7     ecut=    35.00 Ry     beta= 0.40
     Davidson diagonalization with overlap
     ethr =  7.64E-09,  avg # of iterations =  2.4

     negative rho (up, down):  2.020E-04 0.000E+00

     total cpu time spent up to now is       22.7 secs

     End of self-consistent calculation

          k = 0.0000 0.0000 0.0000 (   809 PWs)   bands (ev):

   -29.5085 -12.5669 -10.5185 -10.3324 -10.3324  -5.3071   2.0024   5.6028
     5.6028   7.8302   7.8302  12.6642  13.8635  16.0390  16.2943

     occupation numbers 
     1.0000   1.0000   1.0000   1.0000   1.0000   1.0000   1.0000   1.0000
     1.0000   1.0000   1.0000   0.0000   0.0000   0.0000   0.0000

          k =-0.2500 0.0000 0.1133 (   789 PWs)   bands (ev):

   -29.4458 -13.2753 -10.4790 -10.2600  -9.6189  -5.6020   2.5716   4.4379
     4.9147   7.8018   8.2706  13.0860  14.2169  16.2324  16.9662

     occupation numbers 
     1.0000   1.0000   1.0000   1.0000   1.0000   1.0000   1.0000   1.0000
     1.0000   1.0000   1.0000   0.0000   0.0000   0.0000   0.0000

          k = 0.5000 0.0000-0.2267 (   784 PWs)   bands (ev):

   -29.3818 -13.7955 -10.4328 -10.1854  -9.0692  -5.9000   3.3047   3.3120
     4.3174   7.9468   8.7600  12.3362  15.2775  16.2014  16.6546

     occupation numbers 
     1.0000   1.0000   1.0000   1.0000   1.0000   1.0000   1.0000   1.0000
     1.0000   1.0000   1.0000   0.0000   0.0000   0.0000   0.0000

          k = 0.0000 0.1667 0.0756 (   786 PWs)   bands (ev):

   -29.4773 -12.9593 -10.4987 -10.2964  -9.9407  -5.4546   2.2847   4.9890
     5.2445   7.7987   8.0467  13.3814  13.4818  16.2951  17.0478

     occupation numbers 
     1.0000   1.0000   1.0000   1.0000   1.0000   1.0000   1.0000   1.0000
     1.0000   1.0000   1.0000   0.0000   0.0000   0.0000   0.0000

          k =-0.2500 0.1667 0.1889 (   785 PWs)   bands (ev):

   -29.4168 -13.2418 -10.5501 -10.4955  -9.5035  -5.7000   3.0243   4.1122
     4.9724   7.6504   8.4740  12.5643  14.7857  16.0863  16.9599

     occupation numbers 
     1.0000   1.0000   1.0000   1.0000   1.0000   1.0000   1.0000   1.0000
     1.0000   1.0000   1.0000   0.0000   0.0000   0.0000   0.0000

          k = 0.5000 0.1667-0.1511 (   782 PWs)   bands (ev):

   -29.3596 -13.5720 -10.4124 -10.4062  -9.4450  -5.8159   3.1763   3.8225
     4.4692   7.5399   8.3007  12.6037  15.9210  16.5850  16.9290

     occupation numbers 
     1.0000   1.0000   1.0000   1.0000   1.0000   1.0000   1.0000   1.0000
     1.0000   1.0000   1.0000   0.0000   0.0000   0.0000   0.0000

          k = 0.2500 0.1667-0.0378 (   781 PWs)   bands (ev):

   -29.4211 -13.2641 -10.5347 -10.4130  -9.5241  -5.5577   2.3808   4.2243
     5.2019   7.1547   8.4226  13.5677  14.8829  16.0983  16.5399

     occupation numbers 
     1.0000   1.0000   1.0000   1.0000   1.0000   1.0000   1.0000   1.0000
     1.0000   1.0000   1.0000   0.0000   0.0000   0.0000   0.0000

          k = 0.0000 0.3333 0.1511 (   786 PWs)   bands (ev):

   -29.4139 -13.5492 -10.4571 -10.2230  -9.3335  -5.7502   2.8696   3.9254
     4.6071   7.8472   8.5067  12.7231  15.1205  15.8106  17.0074

     occupation numbers 
     1.0000   1.0000   1.0000   1.0000   1.0000   1.0000   1.0000   1.0000
     1.0000   1.0000   1.0000   0.0000   0.0000   0.0000   0.0000

          k =-0.2500 0.3333 0.2644 (   786 PWs)   bands (ev):

   -29.3625 -13.2513 -10.7256 -10.4559  -9.6310  -5.7649   3.4489   3.9835
     4.6924   7.6443   7.9649  12.4438  16.1790  16.2596  17.2003

     occupation numbers 
     1.0000   1.0000   1.0000   1.0000   1.0000   1.0000   1.0000   1.0000
     1.0000   1.0000   1.0000   0.0000   0.0000   0.0000   0.0000

          k = 0.5000 0.3333-0.0756 (   769 PWs)   bands (ev):

   -29.3147 -12.9660 -10.8221 -10.3997 -10.3097  -5.6478   3.3077   4.3534
     4.8340   6.5320   7.8934  13.0629  16.7680  17.2357  17.3757

     occupation numbers 
     1.0000   1.0000   1.0000   1.0000   1.0000   1.0000   1.0000   1.0000
     1.0000   1.0000   1.0000   0.0000   0.0000   0.0000   0.0000

          k = 0.2500 0.3333 0.0378 (   782 PWs)   bands (ev):

   -29.3669 -13.2804 -10.7006 -10.3671  -9.6560  -5.6225   2.6277   4.1146
     5.1091   6.7059   8.3941  13.4484  16.1205  16.3903  16.5280

     occupation numbers 
     1.0000   1.0000   1.0000   1.0000   1.0000   1.0000   1.0000   1.0000
     1.0000   1.0000   1.0000   0.0000   0.0000   0.0000   0.0000

          k =-0.2500-0.5000-0.1133 (   774 PWs)   bands (ev):

   -29.3372 -13.3060 -10.6181 -10.3918  -9.8573  -5.7319   3.2187   4.1535
     4.6133   7.0435   8.0532  12.8428  16.4561  16.9313  17.1848

     occupation numbers 
     1.0000   1.0000   1.0000   1.0000   1.0000   1.0000   1.0000   1.0000
     1.0000   1.0000   1.0000   0.0000   0.0000   0.0000   0.0000

          k = 0.5000-0.5000-0.4533 (   772 PWs)   bands (ev):

   -29.2920 -12.4348 -11.0457 -10.9905 -10.3388  -5.5631   3.4381   4.4084
     5.1811   6.0051   7.7669  13.2683  16.8552  17.1699  17.6557

     occupation numbers 
     1.0000   1.0000   1.0000   1.0000   1.0000   1.0000   1.0000   1.0000
     1.0000   1.0000   1.0000   0.0000   0.0000   0.0000   0.0000

          k = 0.1667-0.1667 0.0000 (   786 PWs)   bands (ev):

   -29.4501 -13.1099 -10.5016 -10.4411  -9.6529  -5.4772   2.2359   4.4964
     5.3686   7.3142   8.3027  13.7218  14.1362  16.0693  16.8179

     occupation numbers 
     1.0000   1.0000   1.0000   1.0000   1.0000   1.0000   1.0000   1.0000
     1.0000   1.0000   1.0000   0.0000   0.0000   0.0000   0.0000

          k =-0.0833-0.1667 0.1133 (   784 PWs)   bands (ev):

   -29.4685 -12.9909 -10.5140 -10.3931  -9.8194  -5.5141   2.4785   4.7575
     5.2805   7.7338   8.2392  13.1503  13.5615  16.4316  16.7884

     occupation numbers 
     1.0000   1.0000   1.0000   1.0000   1.0000   1.0000   1.0000   1.0000
     1.0000   1.0000   1.0000   0.0000   0.0000   0.0000   0.0000

          k = 0.6667-0.1667-0.2267 (   783 PWs)   bands (ev):

   -29.3875 -13.4013 -10.5165 -10.4641  -9.4413  -5.7811   3.2693   3.8679
     4.7016   7.7141   8.3737  12.4153  15.6344  15.9382  17.1499

     occupation numbers 
     1.0000   1.0000   1.0000   1.0000   1.0000   1.0000   1.0000   1.0000
     1.0000   1.0000   1.0000   0.0000   0.0000   0.0000   0.0000

          k = 0.4167-0.1667-0.1133 (   778 PWs)   bands (ev):

   -29.3687 -13.5345 -10.4358 -10.3937  -9.4474  -5.7558   2.8813   3.9456
     4.6216   7.2915   8.4172  12.9069  15.9038  16.3518  17.0183

     occupation numbers 
     1.0000   1.0000   1.0000   1.0000   1.0000   1.0000   1.0000   1.0000
     1.0000   1.0000   1.0000   0.0000   0.0000   0.0000   0.0000

          k =-0.0833 0.0000 0.1889 (   786 PWs)   bands (ev):

   -29.4935 -12.6433 -10.6431 -10.3320 -10.2137  -5.5407   2.8782   5.2630
     5.3494   8.1814   8.2407  12.5968  12.6932  16.3190  16.9411

     occupation numbers 
     1.0000   1.0000   1.0000   1.0000   1.0000   1.0000   1.0000   1.0000
     1.0000   1.0000   1.0000   0.0000   0.0000   0.0000   0.0000

          k = 0.6667 0.0000-0.1511 (   783 PWs)   bands (ev):

   -29.4090 -13.5193 -10.5826 -10.2297  -9.3189  -5.8365   3.4130   3.8410
     4.5283   8.1082   8.7721  12.3441  15.0264  15.7214  16.9094

     occupation numbers 
     1.0000   1.0000   1.0000   1.0000   1.0000   1.0000   1.0000   1.0000
     1.0000   1.0000   1.0000   0.0000   0.0000   0.0000   0.0000

          k = 0.4167 0.0000-0.0378 (   785 PWs)   bands (ev):

   -29.3923 -13.7356 -10.4137 -10.1931  -9.1557  -5.7677   2.5959   3.8747
     4.4248   7.6455   8.5794  13.3313  15.5269  15.8173  16.5689

     occupation numbers 
     1.0000   1.0000   1.0000   1.0000   1.0000   1.0000   1.0000   1.0000
     1.0000   1.0000   1.0000   0.0000   0.0000   0.0000   0.0000

          k = 0.1667 0.1667 0.1511 (   783 PWs)   bands (ev):

   -29.4464 -13.0916 -10.5134 -10.5102  -9.6371  -5.6030   2.7430   4.4184
     5.1990   7.6546   8.4227  12.8330  14.0444  16.3525  16.7221

     occupation numbers 
     1.0000   1.0000   1.0000   1.0000   1.0000   1.0000   1.0000   1.0000
     1.0000   1.0000   1.0000   0.0000   0.0000   0.0000   0.0000

          k =-0.0833 0.1667 0.2644 (   786 PWs)   bands (ev):

   -29.4605 -12.9369 -10.6972 -10.4068  -9.8059  -5.6909   3.4293   4.6025
     5.0693   8.2542   8.5522  12.2408  13.3698  16.5907  16.6889

     occupation numbers 
     1.0000   1.0000   1.0000   1.0000   1.0000   1.0000   1.0000   1.0000
     1.0000   1.0000   1.0000   0.0000   0.0000   0.0000   0.0000

          k = 0.6667 0.1667-0.0756 (   786 PWs)   bands (ev):

   -29.3838 -13.3674 -10.5859 -10.5180  -9.4406  -5.8013   3.4853   4.0451
     4.5733   7.8848   8.4098  12.6732  15.5458  15.9795  16.5761

     occupation numbers 
     1.0000   1.0000   1.0000   1.0000   1.0000   1.0000   1.0000   1.0000
     1.0000   1.0000   1.0000   0.0000   0.0000   0.0000   0.0000

          k = 0.4167 0.1667 0.0378 (   774 PWs)   bands (ev):

   -29.3693 -13.5351 -10.4321 -10.3899  -9.4554  -5.7158   2.7044   4.0256
     4.6775   7.1074   8.4720  13.3384  15.9038  16.2022  16.7690

     occupation numbers 
     1.0000   1.0000   1.0000   1.0000   1.0000   1.0000   1.0000   1.0000
     1.0000   1.0000   1.0000   0.0000   0.0000   0.0000   0.0000

          k =-0.0833-0.6667-0.1133 (   783 PWs)   bands (ev):

   -29.4017 -13.4749 -10.6007 -10.3154  -9.3430  -5.8291   3.4135   3.9531
     4.5448   8.0624   8.6919  12.4761  15.1462  15.7815  16.6903

     occupation numbers 
     1.0000   1.0000   1.0000   1.0000   1.0000   1.0000   1.0000   1.0000
     1.0000   1.0000   1.0000   0.0000   0.0000   0.0000   0.0000

          k = 0.6667-0.6667-0.4533 (   784 PWs)   bands (ev):

   -29.3367 -13.0780 -10.8791 -10.4746  -9.9061  -5.7134   3.5872   4.3755
     4.4980   7.0439   8.0160  13.0064  16.6020  16.6804  16.9329

     occupation numbers 
     1.0000   1.0000   1.0000   1.0000   1.0000   1.0000   1.0000   1.0000
     1.0000   1.0000   1.0000   0.0000   0.0000   0.0000   0.0000

          k = 0.4167-0.6667-0.3400 (   772 PWs)   bands (ev):

   -29.3222 -13.0166 -10.8507 -10.3660 -10.1822  -5.6499   3.1579   4.2782
     4.9253   6.6183   7.9211  12.9539  16.7445  17.1599  17.3601

     occupation numbers 
     1.0000   1.0000   1.0000   1.0000   1.0000   1.0000   1.0000   1.0000
     1.0000   1.0000   1.0000   0.0000   0.0000   0.0000   0.0000

          k =-0.0833-0.5000-0.0378 (   778 PWs)   bands (ev):

   -29.3758 -13.7325 -10.4478 -10.2455  -9.1781  -5.8189   2.7890   3.9077
     4.3664   7.6073   8.6629  13.1691  15.6136  15.9002  16.7741

     occupation numbers 
     1.0000   1.0000   1.0000   1.0000   1.0000   1.0000   1.0000   1.0000
     1.0000   1.0000   1.0000   0.0000   0.0000   0.0000   0.0000

          k = 0.4167-0.5000-0.2644 (   771 PWs)   bands (ev):

   -29.2981 -12.6262 -10.9665 -10.8081 -10.3056  -5.6348   3.5262   4.5379
     4.7071   6.8580   7.2727  12.6728  17.2241  17.3955  17.5882

     occupation numbers 
     1.0000   1.0000   1.0000   1.0000   1.0000   1.0000   1.0000   1.0000
     1.0000   1.0000   1.0000   0.0000   0.0000   0.0000   0.0000

          k = 0.1667-0.3333-0.0756 (   780 PWs)   bands (ev):

   -29.3913 -13.4210 -10.4970 -10.3953  -9.4613  -5.6604   2.6057   4.0493
     4.9128   7.1465   8.4660  13.2623  15.6565  16.0643  16.6556

     occupation numbers 
     1.0000   1.0000   1.0000   1.0000   1.0000   1.0000   1.0000   1.0000
     1.0000   1.0000   1.0000   0.0000   0.0000   0.0000   0.0000

          k =-0.0833-0.3333 0.0378 (   784 PWs)   bands (ev):

   -29.4097 -13.5217 -10.4075 -10.3015  -9.3717  -5.6543   2.4763   4.0768
     4.7494   7.4395   8.4355  13.4720  15.2382  16.0505  16.3939

     occupation numbers 
     1.0000   1.0000   1.0000   1.0000   1.0000   1.0000   1.0000   1.0000
     1.0000   1.0000   1.0000   0.0000   0.0000   0.0000   0.0000

          k = 0.6667-0.3333-0.3022 (   780 PWs)   bands (ev):

   -29.3404 -13.1255 -10.8428 -10.3694  -9.9071  -5.6802   3.0921   4.1753
     4.9128   6.8947   8.0167  12.7754  16.4825  17.0331  17.2353

     occupation numbers 
     1.0000   1.0000   1.0000   1.0000   1.0000   1.0000   1.0000   1.0000
     1.0000   1.0000   1.0000   0.0000   0.0000   0.0000   0.0000

          k = 0.4167-0.3333-0.1889 (   776 PWs)   bands (ev):

   -29.3216 -13.0136 -10.8602 -10.3819 -10.1605  -5.6885   3.3475   4.2824
     4.7493   7.0081   7.6376  12.6324  16.8059  17.3498  17.4877

     occupation numbers 
     1.0000   1.0000   1.0000   1.0000   1.0000   1.0000   1.0000   1.0000
     1.0000   1.0000   1.0000   0.0000   0.0000   0.0000   0.0000

          k = 0.3333-0.3333 0.0000 (   778 PWs)   bands (ev):

   -29.3417 -13.1316 -10.8306 -10.3491  -9.9283  -5.6063   2.7790   4.1940
     5.1841   6.4084   8.2569  13.4649  16.2919  16.6865  17.0664

     occupation numbers 
     1.0000   1.0000   1.0000   1.0000   1.0000   1.0000   1.0000   1.0000
     1.0000   1.0000   1.0000   0.0000   0.0000   0.0000   0.0000

          k = 0.0833-0.3333 0.1133 (   782 PWs)   bands (ev):

   -29.4084 -13.5178 -10.4296 -10.3030  -9.3624  -5.7078   2.7005   3.9954
     4.7043   7.5933   8.4783  12.9926  15.2661  15.8952  16.8980

     occupation numbers 
     1.0000   1.0000   1.0000   1.0000   1.0000   1.0000   1.0000   1.0000
     1.0000   1.0000   1.0000   0.0000   0.0000   0.0000   0.0000

          k = 0.5833-0.3333-0.1133 (   774 PWs)   bands (ev):

   -29.3204 -12.9937 -10.8802 -10.4045 -10.1738  -5.6902   3.5093   4.4018
     4.5743   6.9148   7.7439  12.8042  16.8297  17.1855  17.4783

     occupation numbers 
     1.0000   1.0000   1.0000   1.0000   1.0000   1.0000   1.0000   1.0000
     1.0000   1.0000   1.0000   0.0000   0.0000   0.0000   0.0000

          k = 0.0833-0.1667 0.1889 (   783 PWs)   bands (ev):

   -29.4648 -12.9694 -10.5931 -10.3993  -9.8100  -5.6141   2.9399   4.6758
     5.1726   7.9873   8.3954  12.5874  13.4705  16.5846  16.7412

     occupation numbers 
     1.0000   1.0000   1.0000   1.0000   1.0000   1.0000   1.0000   1.0000
     1.0000   1.0000   1.0000   0.0000   0.0000   0.0000   0.0000

          k = 0.8333-0.1667-0.1511 (   788 PWs)   bands (ev):

   -29.4390 -13.0352 -10.6965 -10.5274  -9.6249  -5.7383   3.6245   4.3172
     4.9579   8.2520   8.5439  12.2421  13.8702  16.3071  16.6619

     occupation numbers 
     1.0000   1.0000   1.0000   1.0000   1.0000   1.0000   1.0000   1.0000
     1.0000   1.0000   1.0000   0.0000   0.0000   0.0000   0.0000

          k = 0.5833-0.1667-0.0378 (   786 PWs)   bands (ev):

   -29.3650 -13.5051 -10.5002 -10.4465  -9.4415  -5.7983   3.1960   4.0621
     4.4590   7.5266   8.4402  12.9853  15.9930  16.1526  16.6243

     occupation numbers 
     1.0000   1.0000   1.0000   1.0000   1.0000   1.0000   1.0000   1.0000
     1.0000   1.0000   1.0000   0.0000   0.0000   0.0000   0.0000

          k = 0.0833 0.0000 0.2644 (   779 PWs)   bands (ev):

   -29.4885 -12.6004 -10.7605 -10.3387 -10.2178  -5.6299   3.4212   5.1668
     5.2573   8.4216   8.4814  12.1864  12.5745  16.3246  16.9642

     occupation numbers 
     1.0000   1.0000   1.0000   1.0000   1.0000   1.0000   1.0000   1.0000
     1.0000   1.0000   1.0000   0.0000   0.0000   0.0000   0.0000

          k = 0.8333 0.0000-0.0756 (   784 PWs)   bands (ev):

   -29.4625 -12.8443 -10.8623 -10.3167  -9.9285  -5.7282   3.8986   4.7150
     4.9758   8.5228   8.7915  12.1766  13.0607  16.3110  16.8647

     occupation numbers 
     1.0000   1.0000   1.0000   1.0000   1.0000   1.0000   1.0000   1.0000
     1.0000   1.0000   1.0000   0.0000   0.0000   0.0000   0.0000

          k = 0.5833 0.0000 0.0378 (   779 PWs)   bands (ev):

   -29.3873 -13.7072 -10.5411 -10.1998  -9.1381  -5.8553   2.9524   3.9795
     4.3492   7.8908   8.8521  12.9639  15.4806  15.6988  16.3590

     occupation numbers 
     1.0000   1.0000   1.0000   1.0000   1.0000   1.0000   1.0000   1.0000
     1.0000   1.0000   1.0000   0.0000   0.0000   0.0000   0.0000

          k = 0.0833-0.8333-0.1133 (   788 PWs)   bands (ev):

   -29.4568 -12.9008 -10.8004 -10.4135  -9.8069  -5.7281   3.7857   4.5850
     4.9930   8.4537   8.6710  12.1808  13.2858  16.4532  16.6521

     occupation numbers 
     1.0000   1.0000   1.0000   1.0000   1.0000   1.0000   1.0000   1.0000
     1.0000   1.0000   1.0000   0.0000   0.0000   0.0000   0.0000

          k = 0.8333-0.8333-0.4533 (   780 PWs)   bands (ev):

   -29.4353 -12.9947 -10.8100 -10.5359  -9.6264  -5.7569   3.8622   4.4291
     4.8652   8.5116   8.5317  12.4392  13.7875  16.2770  16.3111

     occupation numbers 
     1.0000   1.0000   1.0000   1.0000   1.0000   1.0000   1.0000   1.0000
     1.0000   1.0000   1.0000   0.0000   0.0000   0.0000   0.0000

          k = 0.5833-0.8333-0.3400 (   786 PWs)   bands (ev):

   -29.3655 -13.5126 -10.4791 -10.4414  -9.4376  -5.8151   3.2957   3.9067
     4.4759   7.6523   8.3396  12.6679  15.9341  16.3056  16.9468

     occupation numbers 
     1.0000   1.0000   1.0000   1.0000   1.0000   1.0000   1.0000   1.0000
     1.0000   1.0000   1.0000   0.0000   0.0000   0.0000   0.0000

          k = 0.3333-0.6667-0.1511 (   778 PWs)   bands (ev):

   -29.3379 -13.0990 -10.8671 -10.4299  -9.8982  -5.7323   3.5525   4.1976
     4.6055   7.4237   7.6615  12.5844  16.5309  16.9662  17.2318

     occupation numbers 
     1.0000   1.0000   1.0000   1.0000   1.0000   1.0000   1.0000   1.0000
     1.0000   1.0000   1.0000   0.0000   0.0000   0.0000   0.0000

          k = 0.0833-0.6667-0.0378 (   787 PWs)   bands (ev):

   -29.4004 -13.4629 -10.6419 -10.3181  -9.3447  -5.8230   3.3406   4.1311
     4.5242   8.0368   8.7568  12.7376  15.1099  15.8173  16.2536

     occupation numbers 
     1.0000   1.0000   1.0000   1.0000   1.0000   1.0000   1.0000   1.0000
     1.0000   1.0000   1.0000   0.0000   0.0000   0.0000   0.0000

          k = 0.5833-0.6667-0.2644 (   775 PWs)   bands (ev):

   -29.3210 -13.0053 -10.8710 -10.3942 -10.1592  -5.7030   3.4876   4.3210
     4.6198   7.2544   7.4311  12.5819  16.8306  17.3443  17.5142

     occupation numbers 
     1.0000   1.0000   1.0000   1.0000   1.0000   1.0000   1.0000   1.0000
     1.0000   1.0000   1.0000   0.0000   0.0000   0.0000   0.0000

          k =-0.7500 0.6667 0.1889 (   784 PWs)   bands (ev):

   -29.3644 -13.2670 -10.7152 -10.4107  -9.6359  -5.7294   3.1349   4.0326
     4.8269   7.2914   8.1728  12.5783  16.1684  16.3034  17.2255

     occupation numbers 
     1.0000   1.0000   1.0000   1.0000   1.0000   1.0000   1.0000   1.0000
     1.0000   1.0000   1.0000   0.0000   0.0000   0.0000   0.0000

          k =-0.2500 0.6667-0.0378 (   783 PWs)   bands (ev):

   -29.3601 -13.2211 -10.7391 -10.5384  -9.6352  -5.7599   3.5778   4.1727
     4.5545   7.5077   8.1624  12.8645  16.1705  16.3021  16.5705

     occupation numbers 
     1.0000   1.0000   1.0000   1.0000   1.0000   1.0000   1.0000   1.0000
     1.0000   1.0000   1.0000   0.0000   0.0000   0.0000   0.0000

          k =-0.7500 0.8333 0.2644 (   785 PWs)   bands (ev):

   -29.4137 -13.2186 -10.5840 -10.5487  -9.4967  -5.7573   3.4406   4.0476
     4.8509   7.9653   8.4559  12.3241  14.7115  16.0577  16.9201

     occupation numbers 
     1.0000   1.0000   1.0000   1.0000   1.0000   1.0000   1.0000   1.0000
     1.0000   1.0000   1.0000   0.0000   0.0000   0.0000   0.0000

          k =-0.2500 0.8333 0.0378 (   780 PWs)   bands (ev):

   -29.4094 -13.1759 -10.7071 -10.5672  -9.4968  -5.7797   3.6939   4.2275
     4.7204   8.1974   8.4793  12.5946  14.6112  16.0807  16.3758

     occupation numbers 
     1.0000   1.0000   1.0000   1.0000   1.0000   1.0000   1.0000   1.0000
     1.0000   1.0000   1.0000   0.0000   0.0000   0.0000   0.0000

          k =-0.7500 0.0000-0.1133 (   785 PWs)   bands (ev):

   -29.4359 -13.2090 -10.7252 -10.2735  -9.5988  -5.7797   3.6487   4.2679
     4.7473   8.2973   8.7828  12.2938  13.9881  16.2138  16.5855

     occupation numbers 
     1.0000   1.0000   1.0000   1.0000   1.0000   1.0000   1.0000   1.0000
     1.0000   1.0000   1.0000   0.0000   0.0000   0.0000   0.0000

          k = 0.0000 0.0000-0.4533 (   792 PWs)   bands (ev):

   -29.4889 -12.3706 -10.9986 -10.3593 -10.3593  -5.6811   4.1465   5.2159
     5.2159   8.7959   8.7959  11.9870  12.1961  16.0810  16.8743

     occupation numbers 
     1.0000   1.0000   1.0000   1.0000   1.0000   1.0000   1.0000   1.0000
     1.0000   1.0000   1.0000   0.0000   0.0000   0.0000   0.0000

     the Fermi energy is    10.4734 ev

!    total energy              =    -138.98962887 Ry
     Harris-Foulkes estimate   =    -138.98962760 Ry
     estimated scf accuracy    <       0.00000005 Ry

     The total energy is the sum of the following terms:

     one-electron contribution =     -34.34055280 Ry
     hartree contribution      =      29.53948903 Ry
     xc contribution           =     -26.13013148 Ry
     ewald contribution        =    -108.05843362 Ry
     smearing contrib. (-TS)   =      -0.00000000 Ry

     convergence has been achieved in   7 iterations

     negative rho (up, down):  2.020E-04 0.000E+00

     Forces acting on atoms (cartesian axes, Ry/au):

     atom    1 type  1   force =    -0.00000000    0.00000000    0.00000000
     atom    2 type  2   force =     0.00000000    0.00000000   -0.02956358
     atom    3 type  2   force =     0.00000000    0.00000000    0.02956358
     The non-local contrib.  to forces
     atom    1 type  1   force =    -0.00000000    0.00000000    0.00000000
     atom    2 type  2   force =     0.00000000    0.00000000    1.79284795
     atom    3 type  2   force =    -0.00000000    0.00000000   -1.79284795
     The ionic contribution  to forces
     atom    1 type  1   force =     0.00000000    0.00000000   -0.00000000
     atom    2 type  2   force =     0.00000000   -0.00000000   -8.51423558
     atom    3 type  2   force =     0.00000000    0.00000000    8.51423558
     The local contribution  to forces
     atom    1 type  1   force =     0.00000000   -0.00000000    0.00000000
     atom    2 type  2   force =    -0.00000000   -0.00000000    6.69134673
     atom    3 type  2   force =     0.00000000   -0.00000000   -6.69134673
     The core correction contribution to forces
     atom    1 type  1   force =     0.00000000   -0.00000000   -0.00000000
     atom    2 type  2   force =     0.00000000    0.00000000    0.00000000
     atom    3 type  2   force =     0.00000000    0.00000000    0.00000000
     The Hubbard contrib.    to forces
     atom    1 type  1   force =     0.00000000    0.00000000    0.00000000
     atom    2 type  2   force =     0.00000000    0.00000000    0.00000000
     atom    3 type  2   force =     0.00000000    0.00000000    0.00000000
     The SCF correction term to forces
     atom    1 type  1   force =    -0.00000000    0.00000000   -0.00000000
     atom    2 type  2   force =    -0.00000000    0.00000000    0.00047731
     atom    3 type  2   force =    -0.00000000    0.00000000   -0.00047731

     Total force =     0.041809     Total SCF correction =     0.000675


     Computing stress (Cartesian axis) and pressure


     negative rho (up, down):  2.020E-04 0.000E+00
          total   stress  (Ry/bohr**3)                   (kbar)     P=  180.60
   0.00147724  -0.00000000  -0.00000000        217.31     -0.00     -0.00
  -0.00000000   0.00147724   0.00000000         -0.00    217.31      0.00
  -0.00000000   0.00000000   0.00072870         -0.00      0.00    107.20

     kinetic stress (kbar)  18418.89     -0.00     -0.00
                               -0.00  18418.89      0.00
                               -0.00      0.00  16416.71

     local   stress (kbar) -13297.16     -0.00      0.00
                               -0.00 -13297.16      0.00
                                0.00      0.00   1657.50

     nonloc. stress (kbar)  13659.04      0.00     -0.00
                               -0.00  13659.04      0.00
                               -0.00      0.00  12717.97

     hartree stress (kbar)   8261.40      0.00     -0.00
                                0.00   8261.40     -0.00
                               -0.00     -0.00   2919.74

     exc-cor stress (kbar)  -4267.86      0.00     -0.00
                                0.00  -4267.86     -0.00
                               -0.00     -0.00  -4272.18

     corecor stress (kbar)  -1107.73     -0.00      0.00
                               -0.00  -1107.73     -0.00
                                0.00     -0.00  -1108.33

     ewald   stress (kbar) -21449.28      0.00     -0.00
                                0.00 -21449.28     -0.00
                               -0.00     -0.00 -28224.22

     hubbard stress (kbar)      0.00      0.00      0.00
                                0.00      0.00      0.00
                                0.00      0.00      0.00

     london  stress (kbar)      0.00      0.00      0.00
                                0.00      0.00      0.00
                                0.00      0.00      0.00

     DFT-D3  stress (kbar)      0.00      0.00      0.00
                                0.00      0.00      0.00
                                0.00      0.00      0.00

     XDM     stress (kbar)      0.00      0.00      0.00
                                0.00      0.00      0.00
                                0.00      0.00      0.00

     dft-nl  stress (kbar)      0.00      0.00      0.00
                                0.00      0.00      0.00
                                0.00      0.00      0.00

     TS-vdW  stress (kbar)      0.00      0.00      0.00
                                0.00      0.00      0.00
                                0.00      0.00      0.00



     BFGS Geometry Optimization

     number of scf cycles    =   1
     number of bfgs steps    =   0

     enthalpy new            =    -138.5338321168 Ry

     new trust radius        =       0.0979709668 bohr
     new conv_thr            =       0.0000010000 Ry

     new unit-cell volume =    210.14354 a.u.^3 (    31.14006 Ang^3 )
     density =      3.84348 g/cm^3

CELL_PARAMETERS (alat=  5.87359196)
   0.492973477  -0.492973477   1.066835918
   0.492973477   0.492973477   1.066835918
  -0.492973477  -0.492973477   1.066835918

ATOMIC_POSITIONS (crystal)
Ca       0.000000000   0.500000000   0.500000000
O       -0.000000000   0.889078308   0.889078308
O       -0.000000000   0.110921692   0.110921692



     Writing output data file CaO2.save/
     Check: negative starting charge=   -0.000212
     NEW-OLD atomic charge density approx. for the potential

     Check: negative/imaginary core charge=   -0.000004    0.000000
     Check: negative starting charge=   -0.000205

     negative rho (up, down):  1.816E-04 0.000E+00
     extrapolated charge   20.60205, renormalised to   22.00000

     total cpu time spent up to now is       26.3 secs

     Self-consistent Calculation

     iteration #  1     ecut=    35.00 Ry     beta= 0.40
     Davidson diagonalization with overlap
     ethr =  1.00E-06,  avg # of iterations = 10.0

     negative rho (up, down):  1.641E-04 0.000E+00

     total cpu time spent up to now is       32.1 secs

     total energy              =    -138.79424308 Ry
     Harris-Foulkes estimate   =    -140.48963689 Ry
     estimated scf accuracy    <       0.14852409 Ry

     iteration #  2     ecut=    35.00 Ry     beta= 0.40
     Davidson diagonalization with overlap
     ethr =  6.75E-04,  avg # of iterations =  3.6

     negative rho (up, down):  1.651E-04 0.000E+00

     total cpu time spent up to now is       35.8 secs

     total energy              =    -138.97653799 Ry
     Harris-Foulkes estimate   =    -139.02343359 Ry
     estimated scf accuracy    <       0.16516812 Ry

     iteration #  3     ecut=    35.00 Ry     beta= 0.40
     Davidson diagonalization with overlap
     ethr =  6.75E-04,  avg # of iterations =  1.1

     negative rho (up, down):  1.770E-04 0.000E+00

     total cpu time spent up to now is       38.1 secs

     total energy              =    -138.96906671 Ry
     Harris-Foulkes estimate   =    -138.98373499 Ry
     estimated scf accuracy    <       0.04872930 Ry

     iteration #  4     ecut=    35.00 Ry     beta= 0.40
     Davidson diagonalization with overlap
     ethr =  2.21E-04,  avg # of iterations =  2.9

     negative rho (up, down):  1.847E-04 0.000E+00

     total cpu time spent up to now is       40.8 secs

     total energy              =    -138.97516764 Ry
     Harris-Foulkes estimate   =    -138.97559500 Ry
     estimated scf accuracy    <       0.00569431 Ry

     iteration #  5     ecut=    35.00 Ry     beta= 0.40
     Davidson diagonalization with overlap
     ethr =  2.59E-05,  avg # of iterations =  1.7

     negative rho (up, down):  1.962E-04 0.000E+00

     total cpu time spent up to now is       43.1 secs

     total energy              =    -138.97270677 Ry
     Harris-Foulkes estimate   =    -138.97527459 Ry
     estimated scf accuracy    <       0.00492412 Ry

     iteration #  6     ecut=    35.00 Ry     beta= 0.40
     Davidson diagonalization with overlap
     ethr =  2.24E-05,  avg # of iterations =  2.3

     negative rho (up, down):  1.952E-04 0.000E+00

     total cpu time spent up to now is       45.8 secs

     total energy              =    -138.97374862 Ry
     Harris-Foulkes estimate   =    -138.97376103 Ry
     estimated scf accuracy    <       0.00005429 Ry

     iteration #  7     ecut=    35.00 Ry     beta= 0.40
     Davidson diagonalization with overlap
     ethr =  2.47E-07,  avg # of iterations =  4.5

     negative rho (up, down):  1.917E-04 0.000E+00

     total cpu time spent up to now is       49.2 secs

     total energy              =    -138.97375989 Ry
     Harris-Foulkes estimate   =    -138.97378728 Ry
     estimated scf accuracy    <       0.00003792 Ry

     iteration #  8     ecut=    35.00 Ry     beta= 0.40
     Davidson diagonalization with overlap
     ethr =  1.72E-07,  avg # of iterations =  3.1

     negative rho (up, down):  1.930E-04 0.000E+00

     total cpu time spent up to now is       52.4 secs

     total energy              =    -138.97376794 Ry
     Harris-Foulkes estimate   =    -138.97378088 Ry
     estimated scf accuracy    <       0.00002160 Ry

     iteration #  9     ecut=    35.00 Ry     beta= 0.40
     Davidson diagonalization with overlap
     ethr =  9.82E-08,  avg # of iterations =  2.4

     negative rho (up, down):  1.925E-04 0.000E+00

     total cpu time spent up to now is       55.1 secs

     End of self-consistent calculation

          k = 0.0000 0.0000 0.0000 (   809 PWs)   bands (ev):

   -28.5493 -12.0637  -9.5239  -9.3505  -9.3505  -4.4274   2.4932   6.3686
     6.3686   8.5209   8.5209  13.4940  14.9312  17.1103  17.8404

     occupation numbers 
     1.0000   1.0000   1.0000   1.0000   1.0000   1.0000   1.0000   1.0000
     1.0000   1.0000   1.0000   0.0000   0.0000   0.0000   0.0000

          k =-0.2536-0.0000 0.1172 (   789 PWs)   bands (ev):

   -28.4714 -12.7728  -9.4972  -9.2666  -8.6445  -4.7800   3.1407   5.1440
     5.5991   8.5511   9.0197  14.0938  15.1232  17.3959  18.1536

     occupation numbers 
     1.0000   1.0000   1.0000   1.0000   1.0000   1.0000   1.0000   1.0000
     1.0000   1.0000   1.0000   0.0000   0.0000   0.0000   0.0000

          k = 0.5071 0.0000-0.2343 (   784 PWs)   bands (ev):

   -28.3915 -13.3170  -9.4619  -9.1796  -8.0737  -5.1325   3.9536   3.9637
     4.9385   8.7808   9.5764  13.2671  16.2865  17.2505  17.6664

     occupation numbers 
     1.0000   1.0000   1.0000   1.0000   1.0000   1.0000   1.0000   1.0000
     1.0000   1.0000   1.0000   0.0000   0.0000   0.0000   0.0000

          k = 0.0000 0.1690 0.0781 (   786 PWs)   bands (ev):

   -28.5106 -12.4501  -9.5105  -9.3089  -8.9698  -4.6044   2.8153   5.7234
     5.9663   8.5169   8.7666  14.2614  14.5083  17.4966  18.2833

     occupation numbers 
     1.0000   1.0000   1.0000   1.0000   1.0000   1.0000   1.0000   1.0000
     1.0000   1.0000   1.0000   0.0000   0.0000   0.0000   0.0000

          k =-0.2536 0.1690 0.1953 (   785 PWs)   bands (ev):

   -28.4353 -12.7407  -9.6059  -9.5313  -8.5082  -4.8925   3.6619   4.7685
     5.6902   8.3976   9.3013  13.5284  15.7074  17.1427  18.0957

     occupation numbers 
     1.0000   1.0000   1.0000   1.0000   1.0000   1.0000   1.0000   1.0000
     1.0000   1.0000   1.0000   0.0000   0.0000   0.0000   0.0000

          k = 0.5071 0.1690-0.1562 (   782 PWs)   bands (ev):

   -28.3651 -13.0842  -9.4430  -9.4360  -8.4888  -5.0282   3.8052   4.5167
     5.1320   8.3070   9.1173  13.5658  16.9822  17.6651  17.9795

     occupation numbers 
     1.0000   1.0000   1.0000   1.0000   1.0000   1.0000   1.0000   1.0000
     1.0000   1.0000   1.0000   0.0000   0.0000   0.0000   0.0000

          k = 0.2536 0.1690-0.0391 (   781 PWs)   bands (ev):

   -28.4420 -12.7639  -9.5836  -9.4162  -8.5334  -4.7239   2.9039   4.8893
     5.9676   7.7993   9.2343  14.6199  15.8273  17.3212  17.6642

     occupation numbers 
     1.0000   1.0000   1.0000   1.0000   1.0000   1.0000   1.0000   1.0000
     1.0000   1.0000   1.0000   0.0000   0.0000   0.0000   0.0000

          k = 0.0000 0.3381 0.1562 (   786 PWs)   bands (ev):

   -28.4317 -13.0577  -9.4812  -9.2235  -8.3502  -4.9555   3.4770   4.6053
     5.2584   8.6341   9.2874  13.6951  16.0801  16.8834  18.0621

     occupation numbers 
     1.0000   1.0000   1.0000   1.0000   1.0000   1.0000   1.0000   1.0000
     1.0000   1.0000   1.0000   0.0000   0.0000   0.0000   0.0000

          k =-0.2536 0.3381 0.2734 (   786 PWs)   bands (ev):

   -28.3689 -12.7521  -9.8099  -9.4991  -8.6639  -4.9639   4.1293   4.6494
     5.3985   8.4393   8.7549  13.3912  17.2193  17.2750  18.3749

     occupation numbers 
     1.0000   1.0000   1.0000   1.0000   1.0000   1.0000   1.0000   1.0000
     1.0000   1.0000   1.0000   0.0000   0.0000   0.0000   0.0000

          k = 0.5071 0.3381-0.0781 (   769 PWs)   bands (ev):

   -28.3117 -12.4626  -9.9167  -9.4921  -9.3595  -4.8217   3.9332   5.0660
     5.5955   7.1638   8.7493  14.0939  17.9934  18.3684  18.4809

     occupation numbers 
     1.0000   1.0000   1.0000   1.0000   1.0000   1.0000   1.0000   1.0000
     1.0000   1.0000   1.0000   0.0000   0.0000   0.0000   0.0000

          k = 0.2536 0.3381 0.0391 (   782 PWs)   bands (ev):

   -28.3756 -12.7839  -9.7728  -9.3751  -8.6975  -4.7971   3.1746   4.7864
     5.8905   7.3197   9.2544  14.5075  17.2575  17.4285  17.6897

     occupation numbers 
     1.0000   1.0000   1.0000   1.0000   1.0000   1.0000   1.0000   1.0000
     1.0000   1.0000   1.0000   0.0000   0.0000   0.0000   0.0000

          k =-0.2536-0.5071-0.1172 (   774 PWs)   bands (ev):

   -28.3385 -12.8091  -9.6817  -9.4235  -8.9365  -4.9247   3.8437   4.8676
     5.3187   7.7364   8.8927  13.8381  17.5763  18.0774  18.2718

     occupation numbers 
     1.0000   1.0000   1.0000   1.0000   1.0000   1.0000   1.0000   1.0000
     1.0000   1.0000   1.0000   0.0000   0.0000   0.0000   0.0000

          k = 0.5071-0.5071-0.4687 (   772 PWs)   bands (ev):

   -28.2847 -11.9499 -10.1803 -10.1005  -9.3637  -4.7186   4.0659   5.1249
     6.0117   6.5618   8.6332  14.3374  18.0850  18.2695  18.8296

     occupation numbers 
     1.0000   1.0000   1.0000   1.0000   1.0000   1.0000   1.0000   1.0000
     1.0000   1.0000   1.0000   0.0000   0.0000   0.0000   0.0000

          k = 0.1690-0.1690 0.0000 (   786 PWs)   bands (ev):

   -28.4777 -12.6048  -9.5444  -9.4425  -8.6602  -4.6289   2.7436   5.1750
     6.1430   7.9615   9.0814  14.7809  15.0407  17.3339  17.9216

     occupation numbers 
     1.0000   1.0000   1.0000   1.0000   1.0000   1.0000   1.0000   1.0000
     1.0000   1.0000   1.0000   0.0000   0.0000   0.0000   0.0000

          k =-0.0845-0.1690 0.1172 (   784 PWs)   bands (ev):

   -28.4993 -12.4827  -9.5352  -9.4221  -8.8340  -4.6753   3.0425   5.4560
     6.0185   8.4464   9.0032  14.1688  14.4304  17.6072  17.9242

     occupation numbers 
     1.0000   1.0000   1.0000   1.0000   1.0000   1.0000   1.0000   1.0000
     1.0000   1.0000   1.0000   0.0000   0.0000   0.0000   0.0000

          k = 0.6762-0.1690-0.2343 (   783 PWs)   bands (ev):

   -28.3992 -12.9058  -9.5711  -9.5004  -8.4576  -4.9869   3.9319   4.5250
     5.3932   8.4962   9.1924  13.3592  16.6067  16.9772  18.2830

     occupation numbers 
     1.0000   1.0000   1.0000   1.0000   1.0000   1.0000   1.0000   1.0000
     1.0000   1.0000   1.0000   0.0000   0.0000   0.0000   0.0000

          k = 0.4226-0.1690-0.1172 (   778 PWs)   bands (ev):

   -28.3768 -13.0451  -9.4713  -9.4126  -8.4846  -4.9579   3.4713   4.6316
     5.3128   8.0039   9.2531  13.9029  16.9669  17.4079  18.1335

     occupation numbers 
     1.0000   1.0000   1.0000   1.0000   1.0000   1.0000   1.0000   1.0000
     1.0000   1.0000   1.0000   0.0000   0.0000   0.0000   0.0000

          k =-0.0845 0.0000 0.1953 (   786 PWs)   bands (ev):

   -28.5285 -12.1343  -9.7041  -9.3530  -9.2402  -4.6918   3.5201   5.9873
     6.0718   8.9576   9.0164  13.4921  13.6055  17.4536  17.9585

     occupation numbers 
     1.0000   1.0000   1.0000   1.0000   1.0000   1.0000   1.0000   1.0000
     1.0000   1.0000   1.0000   0.0000   0.0000   0.0000   0.0000

          k = 0.6762 0.0000-0.1562 (   783 PWs)   bands (ev):

   -28.4239 -13.0230  -9.6651  -9.2335  -8.3373  -5.0209   4.0630   4.5332
     5.1684   8.9538   9.6085  13.3219  15.9591  16.7536  18.1603

     occupation numbers 
     1.0000   1.0000   1.0000   1.0000   1.0000   1.0000   1.0000   1.0000
     1.0000   1.0000   1.0000   0.0000   0.0000   0.0000   0.0000

          k = 0.4226 0.0000-0.0391 (   785 PWs)   bands (ev):

   -28.4052 -13.2519  -9.4367  -9.1878  -8.1690  -4.9585   3.1424   4.5643
     5.0594   8.4223   9.3591  14.3752  16.6068  16.8946  17.7690

     occupation numbers 
     1.0000   1.0000   1.0000   1.0000   1.0000   1.0000   1.0000   1.0000
     1.0000   1.0000   1.0000   0.0000   0.0000   0.0000   0.0000

          k = 0.1690 0.1690 0.1562 (   783 PWs)   bands (ev):

   -28.4719 -12.5861  -9.5570  -9.5430  -8.6410  -4.7796   3.3457   5.0878
     5.9352   8.3770   9.2282  13.8262  14.9304  17.4710  17.8177

     occupation numbers 
     1.0000   1.0000   1.0000   1.0000   1.0000   1.0000   1.0000   1.0000
     1.0000   1.0000   1.0000   0.0000   0.0000   0.0000   0.0000

          k =-0.0845 0.1690 0.2734 (   786 PWs)   bands (ev):

   -28.4869 -12.4221  -9.7970  -9.4427  -8.8230  -4.8450   4.1314   5.2798
     5.7720   9.0724   9.3846  13.2255  14.2001  17.7212  17.7892

     occupation numbers 
     1.0000   1.0000   1.0000   1.0000   1.0000   1.0000   1.0000   1.0000
     1.0000   1.0000   1.0000   0.0000   0.0000   0.0000   0.0000

          k = 0.6762 0.1690-0.0781 (   786 PWs)   bands (ev):

   -28.3933 -12.8639  -9.6836  -9.5747  -8.4608  -4.9603   4.1217   4.7445
     5.2522   8.6919   9.2561  13.7159  16.4992  17.0383  17.7743

     occupation numbers 
     1.0000   1.0000   1.0000   1.0000   1.0000   1.0000   1.0000   1.0000
     1.0000   1.0000   1.0000   0.0000   0.0000   0.0000   0.0000

          k = 0.4226 0.1690 0.0391 (   774 PWs)   bands (ev):

   -28.3777 -13.0447  -9.4660  -9.4103  -8.4959  -4.8995   3.2600   4.7105
     5.3862   7.7835   9.3191  14.3937  17.0236  17.2750  17.9231

     occupation numbers 
     1.0000   1.0000   1.0000   1.0000   1.0000   1.0000   1.0000   1.0000
     1.0000   1.0000   1.0000   0.0000   0.0000   0.0000   0.0000

          k =-0.0845-0.6762-0.1172 (   783 PWs)   bands (ev):

   -28.4148 -12.9756  -9.6960  -9.3364  -8.3602  -4.9992   4.0498   4.6534
     5.1989   8.9065   9.5315  13.4873  16.0812  16.8173  17.9080

     occupation numbers 
     1.0000   1.0000   1.0000   1.0000   1.0000   1.0000   1.0000   1.0000
     1.0000   1.0000   1.0000   0.0000   0.0000   0.0000   0.0000

          k = 0.6762-0.6762-0.4687 (   784 PWs)   bands (ev):

   -28.3372 -12.5698  -9.9897  -9.5450  -8.9682  -4.8689   4.2323   5.1065
     5.2042   7.7177   8.8884  14.0766  17.8020  17.8023  17.9596

     occupation numbers 
     1.0000   1.0000   1.0000   1.0000   1.0000   1.0000   1.0000   1.0000
     1.0000   1.0000   1.0000   0.0000   0.0000   0.0000   0.0000

          k = 0.4226-0.6762-0.3515 (   772 PWs)   bands (ev):

   -28.3211 -12.5168  -9.9455  -9.4092  -9.2516  -4.8368   3.7777   4.9811
     5.6773   7.2774   8.7643  13.9529  17.8831  18.3562  18.4739

     occupation numbers 
     1.0000   1.0000   1.0000   1.0000   1.0000   1.0000   1.0000   1.0000
     1.0000   1.0000   1.0000   0.0000   0.0000   0.0000   0.0000

          k =-0.0845-0.5071-0.0391 (   778 PWs)   bands (ev):

   -28.3845 -13.2484  -9.4946  -9.2497  -8.1989  -5.0045   3.3568   4.6057
     5.0018   8.3841   9.4889  14.2264  16.6779  17.0132  17.9250

     occupation numbers 
     1.0000   1.0000   1.0000   1.0000   1.0000   1.0000   1.0000   1.0000
     1.0000   1.0000   1.0000   0.0000   0.0000   0.0000   0.0000

          k = 0.4226-0.5071-0.2734 (   771 PWs)   bands (ev):

   -28.2919 -12.1327 -10.0818  -9.9371  -9.3096  -4.8305   4.2047   5.2556
     5.4323   7.5843   8.0585  13.6195  18.3251  18.5703  18.7144

     occupation numbers 
     1.0000   1.0000   1.0000   1.0000   1.0000   1.0000   1.0000   1.0000
     1.0000   1.0000   1.0000   0.0000   0.0000   0.0000   0.0000

          k = 0.1690-0.3381-0.0781 (   780 PWs)   bands (ev):

   -28.4050 -12.9267  -9.5424  -9.4046  -8.4826  -4.8455   3.1584   4.7177
     5.6466   7.8154   9.2993  14.2925  16.6654  17.1397  17.8894

     occupation numbers 
     1.0000   1.0000   1.0000   1.0000   1.0000   1.0000   1.0000   1.0000
     1.0000   1.0000   1.0000   0.0000   0.0000   0.0000   0.0000

          k =-0.0845-0.3381 0.0391 (   784 PWs)   bands (ev):

   -28.4274 -13.0290  -9.4163  -9.3152  -8.3904  -4.8343   3.0089   4.7583
     5.4414   8.1463   9.2237  14.5176  16.2304  17.1748  17.6064

     occupation numbers 
     1.0000   1.0000   1.0000   1.0000   1.0000   1.0000   1.0000   1.0000
     1.0000   1.0000   1.0000   0.0000   0.0000   0.0000   0.0000

          k = 0.6762-0.3381-0.3125 (   780 PWs)   bands (ev):

   -28.3431 -12.6278  -9.9370  -9.3863  -8.9669  -4.8790   3.7162   4.8644
     5.6516   7.5891   8.8481  13.7460  17.5561  18.0801  18.3990

     occupation numbers 
     1.0000   1.0000   1.0000   1.0000   1.0000   1.0000   1.0000   1.0000
     1.0000   1.0000   1.0000   0.0000   0.0000   0.0000   0.0000

          k = 0.4226-0.3381-0.1953 (   776 PWs)   bands (ev):

   -28.3201 -12.5144  -9.9596  -9.4300  -9.2186  -4.8923   4.0062   4.9879
     5.4732   7.7353   8.4339  13.5788  17.9065  18.4750  18.6461

     occupation numbers 
     1.0000   1.0000   1.0000   1.0000   1.0000   1.0000   1.0000   1.0000
     1.0000   1.0000   1.0000   0.0000   0.0000   0.0000   0.0000

          k = 0.3381-0.3381 0.0000 (   778 PWs)   bands (ev):

   -28.3451 -12.6330  -9.9192  -9.3598  -9.0002  -4.7751   3.3400   4.8779
     5.9928   6.9907   9.1296  14.5370  17.5511  17.7345  18.1200

     occupation numbers 
     1.0000   1.0000   1.0000   1.0000   1.0000   1.0000   1.0000   1.0000
     1.0000   1.0000   1.0000   0.0000   0.0000   0.0000   0.0000

          k = 0.0845-0.3381 0.1172 (   782 PWs)   bands (ev):

   -28.4255 -13.0255  -9.4457  -9.3173  -8.3783  -4.9045   3.2762   4.6724
     5.3843   8.3303   9.2756  13.9913  16.2407  16.9747  18.1100

     occupation numbers 
     1.0000   1.0000   1.0000   1.0000   1.0000   1.0000   1.0000   1.0000
     1.0000   1.0000   1.0000   0.0000   0.0000   0.0000   0.0000

          k = 0.5916-0.3381-0.1172 (   774 PWs)   bands (ev):

   -28.3182 -12.4898  -9.9893  -9.4515  -9.2527  -4.8717   4.1685   5.1263
     5.2916   7.5958   8.5808  13.7998  17.9823  18.3887  18.5860

     occupation numbers 
     1.0000   1.0000   1.0000   1.0000   1.0000   1.0000   1.0000   1.0000
     1.0000   1.0000   1.0000   0.0000   0.0000   0.0000   0.0000

          k = 0.0845-0.1690 0.1953 (   783 PWs)   bands (ev):

   -28.4936 -12.4596  -9.6469  -9.4314  -8.8244  -4.7829   3.5808   5.3628
     5.8903   8.7522   9.1931  13.5712  14.3198  17.7316  17.8442

     occupation numbers 
     1.0000   1.0000   1.0000   1.0000   1.0000   1.0000   1.0000   1.0000
     1.0000   1.0000   1.0000   0.0000   0.0000   0.0000   0.0000

          k = 0.8452-0.1690-0.1562 (   788 PWs)   bands (ev):

   -28.4603 -12.5208  -9.8084  -9.5822  -8.6315  -4.8894   4.3350   4.9752
     5.6614   9.0859   9.3894  13.2382  14.7228  17.3572  17.8101

     occupation numbers 
     1.0000   1.0000   1.0000   1.0000   1.0000   1.0000   1.0000   1.0000
     1.0000   1.0000   1.0000   0.0000   0.0000   0.0000   0.0000

          k = 0.5916-0.1690-0.0391 (   786 PWs)   bands (ev):

   -28.3709 -13.0094  -9.5726  -9.4884  -8.4800  -4.9666   3.8025   4.7755
     5.1216   8.2822   9.2950  14.0502  17.0744  17.2286  17.7614

     occupation numbers 
     1.0000   1.0000   1.0000   1.0000   1.0000   1.0000   1.0000   1.0000
     1.0000   1.0000   1.0000   0.0000   0.0000   0.0000   0.0000

          k = 0.0845 0.0000 0.2734 (   779 PWs)   bands (ev):

   -28.5208 -12.0856  -9.8728  -9.3630  -9.2484  -4.7657   4.1319   5.8772
     5.9662   9.2466   9.3055  13.1887  13.3590  17.4708  17.9876

     occupation numbers 
     1.0000   1.0000   1.0000   1.0000   1.0000   1.0000   1.0000   1.0000
     1.0000   1.0000   1.0000   0.0000   0.0000   0.0000   0.0000

          k = 0.8452 0.0000-0.0781 (   784 PWs)   bands (ev):

   -28.4874 -12.3165 -10.0336  -9.3388  -8.9671  -4.8367   4.6175   5.4179
     5.6565   9.3971   9.6647  13.2575  13.8595  17.4481  17.9431

     occupation numbers 
     1.0000   1.0000   1.0000   1.0000   1.0000   1.0000   1.0000   1.0000
     1.0000   1.0000   1.0000   0.0000   0.0000   0.0000   0.0000

          k = 0.5916 0.0000 0.0391 (   779 PWs)   bands (ev):

   -28.3974 -13.2188  -9.6240  -9.1978  -8.1518  -5.0261   3.5351   4.6859
     4.9733   8.7259   9.6894  14.0385  16.5144  16.7272  17.5227

     occupation numbers 
     1.0000   1.0000   1.0000   1.0000   1.0000   1.0000   1.0000   1.0000
     1.0000   1.0000   1.0000   0.0000   0.0000   0.0000   0.0000

          k = 0.0845-0.8452-0.1172 (   788 PWs)   bands (ev):

   -28.4811 -12.3783  -9.9478  -9.4526  -8.8276  -4.8535   4.5051   5.2668
     5.6870   9.3133   9.5303  13.2202  14.1008  17.6033  17.7170

     occupation numbers 
     1.0000   1.0000   1.0000   1.0000   1.0000   1.0000   1.0000   1.0000
     1.0000   1.0000   1.0000   0.0000   0.0000   0.0000   0.0000

          k = 0.8452-0.8452-0.4687 (   780 PWs)   bands (ev):

   -28.4545 -12.4702  -9.9763  -9.5947  -8.6366  -4.8676   4.5375   5.1291
     5.5609   9.3666   9.4160  13.5518  14.6250  17.3578  17.4027

     occupation numbers 
     1.0000   1.0000   1.0000   1.0000   1.0000   1.0000   1.0000   1.0000
     1.0000   1.0000   1.0000   0.0000   0.0000   0.0000   0.0000

          k = 0.5916-0.8452-0.3515 (   786 PWs)   bands (ev):

   -28.3718 -13.0194  -9.5379  -9.4810  -8.4738  -5.0047   3.9260   4.6061
     5.1408   8.4338   9.1683  13.6646  16.9979  17.3430  18.0681

     occupation numbers 
     1.0000   1.0000   1.0000   1.0000   1.0000   1.0000   1.0000   1.0000
     1.0000   1.0000   1.0000   0.0000   0.0000   0.0000   0.0000

          k = 0.3381-0.6762-0.1562 (   778 PWs)   bands (ev):

   -28.3392 -12.5967  -9.9722  -9.4737  -8.9566  -4.9226   4.2332   4.8915
     5.3155   8.1608   8.4780  13.5499  17.6263  17.9999  18.4287

     occupation numbers 
     1.0000   1.0000   1.0000   1.0000   1.0000   1.0000   1.0000   1.0000
     1.0000   1.0000   1.0000   0.0000   0.0000   0.0000   0.0000

          k = 0.0845-0.6762-0.0391 (   787 PWs)   bands (ev):

   -28.4129 -12.9602  -9.7591  -9.3404  -8.3642  -4.9704   3.9558   4.8430
     5.1782   8.8809   9.6124  13.8237  16.0387  16.8604  17.4221

     occupation numbers 
     1.0000   1.0000   1.0000   1.0000   1.0000   1.0000   1.0000   1.0000
     1.0000   1.0000   1.0000   0.0000   0.0000   0.0000   0.0000

          k = 0.5916-0.6762-0.2734 (   775 PWs)   bands (ev):

   -28.3191 -12.5046  -9.9757  -9.4417  -9.2228  -4.9045   4.1641   5.0320
     5.3318   7.9995   8.2135  13.5265  17.9453  18.4827  18.6308

     occupation numbers 
     1.0000   1.0000   1.0000   1.0000   1.0000   1.0000   1.0000   1.0000
     1.0000   1.0000   1.0000   0.0000   0.0000   0.0000   0.0000

          k =-0.7607 0.6762 0.1953 (   784 PWs)   bands (ev):

   -28.3717 -12.7705  -9.7944  -9.4329  -8.6693  -4.9355   3.7739   4.7053
     5.5479   8.0246   8.9963  13.5293  17.2150  17.3144  18.3822

     occupation numbers 
     1.0000   1.0000   1.0000   1.0000   1.0000   1.0000   1.0000   1.0000
     1.0000   1.0000   1.0000   0.0000   0.0000   0.0000   0.0000

          k =-0.2536 0.6762-0.0391 (   783 PWs)   bands (ev):

   -28.3649 -12.7140  -9.8297  -9.6269  -8.6714  -4.9138   4.2215   4.8813
     5.2511   8.2415   9.0310  13.9289  17.1612  17.3946  17.7558

     occupation numbers 
     1.0000   1.0000   1.0000   1.0000   1.0000   1.0000   1.0000   1.0000
     1.0000   1.0000   1.0000   0.0000   0.0000   0.0000   0.0000

          k =-0.7607 0.8452 0.2734 (   785 PWs)   bands (ev):

   -28.4303 -12.7137  -9.6580  -9.6064  -8.5020  -4.9377   4.1317   4.6951
     5.5529   8.7715   9.2868  13.2861  15.6186  17.0986  18.0803

     occupation numbers 
     1.0000   1.0000   1.0000   1.0000   1.0000   1.0000   1.0000   1.0000
     1.0000   1.0000   1.0000   0.0000   0.0000   0.0000   0.0000

          k =-0.2536 0.8452 0.0391 (   780 PWs)   bands (ev):

   -28.4236 -12.6606  -9.8443  -9.6318  -8.5062  -4.9102   4.3427   4.9302
     5.4114   9.0340   9.3438  13.6820  15.4993  17.1307  17.5293

     occupation numbers 
     1.0000   1.0000   1.0000   1.0000   1.0000   1.0000   1.0000   1.0000
     1.0000   1.0000   1.0000   0.0000   0.0000   0.0000   0.0000

          k =-0.7607-0.0000-0.1172 (   785 PWs)   bands (ev):

   -28.4559 -12.6956  -9.8544  -9.2866  -8.6293  -4.9233   4.3291   4.9702
     5.4070   9.1564   9.6383  13.3226  14.8479  17.2733  17.7705

     occupation numbers 
     1.0000   1.0000   1.0000   1.0000   1.0000   1.0000   1.0000   1.0000
     1.0000   1.0000   1.0000   0.0000   0.0000   0.0000   0.0000

          k = 0.0000-0.0000-0.4687 (   792 PWs)   bands (ev):

   -28.5187 -11.8406 -10.2102  -9.3903  -9.3903  -4.7587   4.9046   5.9189
     5.9189   9.6849   9.6849  12.9383  13.1182  17.1809  17.8993

     occupation numbers 
     1.0000   1.0000   1.0000   1.0000   1.0000   1.0000   1.0000   1.0000
     1.0000   1.0000   1.0000   0.0000   0.0000   0.0000   0.0000

     the Fermi energy is    11.6137 ev

!    total energy              =    -138.97377320 Ry
     Harris-Foulkes estimate   =    -138.97377385 Ry
     estimated scf accuracy    <       0.00000093 Ry

     The total energy is the sum of the following terms:

     one-electron contribution =     -29.84493718 Ry
     hartree contribution      =      27.99641089 Ry
     xc contribution           =     -26.21271784 Ry
     ewald contribution        =    -110.91252908 Ry
     smearing contrib. (-TS)   =      -0.00000000 Ry

     convergence has been achieved in   9 iterations

     negative rho (up, down):  1.925E-04 0.000E+00

     Forces acting on atoms (cartesian axes, Ry/au):

     atom    1 type  1   force =     0.00000000    0.00000000    0.00000000
     atom    2 type  2   force =    -0.00000000    0.00000000   -0.04245277
     atom    3 type  2   force =    -0.00000000    0.00000000    0.04245277
     The non-local contrib.  to forces
     atom    1 type  1   force =     0.00000000   -0.00000000   -0.00000000
     atom    2 type  2   force =    -0.00000000    0.00000000    1.83971521
     atom    3 type  2   force =     0.00000000   -0.00000000   -1.83971521
     The ionic contribution  to forces
     atom    1 type  1   force =     0.00000000   -0.00000000   -0.00000000
     atom    2 type  2   force =    -0.00000000    0.00000000   -8.34851715
     atom    3 type  2   force =    -0.00000000    0.00000000    8.34851715
     The local contribution  to forces
     atom    1 type  1   force =     0.00000000   -0.00000000   -0.00000000
     atom    2 type  2   force =     0.00000000   -0.00000000    6.46756151
     atom    3 type  2   force =     0.00000000   -0.00000000   -6.46756151
     The core correction contribution to forces
     atom    1 type  1   force =     0.00000000   -0.00000000    0.00000000
     atom    2 type  2   force =     0.00000000    0.00000000    0.00000000
     atom    3 type  2   force =     0.00000000    0.00000000    0.00000000
     The Hubbard contrib.    to forces
     atom    1 type  1   force =     0.00000000    0.00000000    0.00000000
     atom    2 type  2   force =     0.00000000    0.00000000    0.00000000
     atom    3 type  2   force =     0.00000000    0.00000000    0.00000000
     The SCF correction term to forces
     atom    1 type  1   force =    -0.00000000    0.00000000    0.00000000
     atom    2 type  2   force =     0.00000000   -0.00000000   -0.00121235
     atom    3 type  2   force =    -0.00000000    0.00000000    0.00121235

     Total force =     0.060037     Total SCF correction =     0.001715


     Computing stress (Cartesian axis) and pressure


     negative rho (up, down):  1.925E-04 0.000E+00
          total   stress  (Ry/bohr**3)                   (kbar)     P=  274.44
   0.00217062   0.00000000  -0.00000000        319.31      0.00     -0.00
   0.00000000   0.00217062   0.00000000          0.00    319.31      0.00
  -0.00000000   0.00000000   0.00125566         -0.00      0.00    184.71

     kinetic stress (kbar)  19699.43     -0.00     -0.00
                               -0.00  19699.43      0.00
                               -0.00      0.00  17551.42

     local   stress (kbar) -12126.55     -0.00     -0.00
                               -0.00 -12126.55      0.00
                               -0.00      0.00    758.24

     nonloc. stress (kbar)  14541.34      0.00      0.00
                                0.00  14541.34     -0.00
                               -0.00      0.00  13536.70

     hartree stress (kbar)   8027.65      0.00      0.00
                                0.00   8027.65     -0.00
                                0.00     -0.00   3542.80

     exc-cor stress (kbar)  -4556.72     -0.00     -0.00
                               -0.00  -4556.72     -0.00
                               -0.00     -0.00  -4558.85

     corecor stress (kbar)  -1178.49     -0.00     -0.00
                               -0.00  -1178.49     -0.00
                               -0.00     -0.00  -1179.11

     ewald   stress (kbar) -24087.35      0.00     -0.00
                                0.00 -24087.35      0.00
                               -0.00      0.00 -29466.48

[...]

     occupation numbers 
     1.0000   1.0000   1.0000   1.0000   1.0000   1.0000   1.0000   1.0000
     1.0000   1.0000   1.0000   0.0000   0.0000   0.0000   0.0000

          k = 0.4162 0.1665 0.0424 (   692 PWs)   bands (ev):

   -27.6322 -12.1119  -8.7800  -8.6962  -7.8476  -4.0110   3.7882   5.4789
     6.2471   8.3181  10.2587  15.2628  17.9423  18.1211  19.0316

     occupation numbers 
     1.0000   1.0000   1.0000   1.0000   1.0000   1.0000   1.0000   1.0000
     1.0000   1.0000   1.0000   0.0000   0.0000   0.0000   0.0000

          k =-0.0832-0.6659-0.1272 (   701 PWs)   bands (ev):

   -27.6524 -12.0558  -9.1256  -8.6077  -7.7049  -4.1677   4.6877   5.5320
     5.9090   9.8286  10.4369  14.3600  16.7150  17.6000  18.6699

     occupation numbers 
     1.0000   1.0000   1.0000   1.0000   1.0000   1.0000   1.0000   1.0000
     1.0000   1.0000   1.0000   0.0000   0.0000   0.0000   0.0000

          k = 0.6659-0.6659-0.5090 (   698 PWs)   bands (ev):

   -27.5890 -11.6483  -9.2092  -9.0350  -8.2490  -3.9346   4.7169   5.7428
     6.0355   8.2383  10.2767  15.0853  18.5221  18.6774  19.2202

     occupation numbers 
     1.0000   1.0000   1.0000   1.0000   1.0000   1.0000   1.0000   1.0000
     1.0000   1.0000   1.0000   0.0000   0.0000   0.0000   0.0000

          k = 0.4162-0.6659-0.3817 (   691 PWs)   bands (ev):

   -27.5821 -11.6514  -9.1087  -8.7901  -8.4732  -4.0655   4.4015   5.6293
     6.3500   8.0252   9.9586  14.6777  18.5203  19.0200  19.4117

     occupation numbers 
     1.0000   1.0000   1.0000   1.0000   1.0000   1.0000   1.0000   1.0000
     1.0000   1.0000   1.0000   0.0000   0.0000   0.0000   0.0000

          k =-0.0832-0.4994-0.0424 (   698 PWs)   bands (ev):

   -27.6339 -12.2884  -8.9200  -8.5222  -7.5775  -4.0802   3.9034   5.4379
     5.8162   9.0883  10.3040  15.1491  17.5955  17.9593  18.6098

     occupation numbers 
     1.0000   1.0000   1.0000   1.0000   1.0000   1.0000   1.0000   1.0000
     1.0000   1.0000   1.0000   0.0000   0.0000   0.0000   0.0000

          k = 0.4162-0.4994-0.2969 (   688 PWs)   bands (ev):

   -27.5558 -11.3335  -9.2557  -9.1483  -8.5514  -4.1631   4.9691   5.8069
     6.0052   8.5686   9.2310  14.1744  18.8843  19.1866  19.3229

     occupation numbers 
     1.0000   1.0000   1.0000   1.0000   1.0000   1.0000   1.0000   1.0000
     1.0000   1.0000   1.0000   0.0000   0.0000   0.0000   0.0000

          k = 0.1665-0.3329-0.0848 (   695 PWs)   bands (ev):

   -27.6580 -12.0251  -8.7613  -8.6946  -7.8285  -4.0361   3.7467   5.5107
     6.4625   8.3805  10.1252  15.0799  17.4721  17.9973  19.0638

     occupation numbers 
     1.0000   1.0000   1.0000   1.0000   1.0000   1.0000   1.0000   1.0000
     1.0000   1.0000   1.0000   0.0000   0.0000   0.0000   0.0000

          k =-0.0832-0.3329 0.0424 (   701 PWs)   bands (ev):

   -27.6786 -12.1116  -8.7064  -8.5627  -7.7514  -3.9813   3.5408   5.6043
     6.2919   8.6963   9.8742  15.3317  17.0859  18.1493  19.0731

     occupation numbers 
     1.0000   1.0000   1.0000   1.0000   1.0000   1.0000   1.0000   1.0000
     1.0000   1.0000   1.0000   0.0000   0.0000   0.0000   0.0000

          k = 0.6659-0.3329-0.3393 (   701 PWs)   bands (ev):

   -27.6012 -11.7685  -9.1052  -8.7204  -8.2065  -4.1763   4.4286   5.5769
     6.2768   8.4314   9.8915  14.3942  18.2064  18.7362  19.4048

     occupation numbers 
     1.0000   1.0000   1.0000   1.0000   1.0000   1.0000   1.0000   1.0000
     1.0000   1.0000   1.0000   0.0000   0.0000   0.0000   0.0000

          k = 0.4162-0.3329-0.2121 (   693 PWs)   bands (ev):

   -27.5801 -11.6678  -9.1370  -8.7958  -8.3814  -4.2240   4.7666   5.6587
     6.0696   8.6887   9.4878  14.1568  18.5430  19.0803  19.3072

     occupation numbers 
     1.0000   1.0000   1.0000   1.0000   1.0000   1.0000   1.0000   1.0000
     1.0000   1.0000   1.0000   0.0000   0.0000   0.0000   0.0000

          k = 0.3329-0.3329 0.0000 (   686 PWs)   bands (ev):

   -27.6053 -11.7428  -9.0698  -8.7286  -8.3168  -3.8894   3.8387   5.5468
     6.8799   7.4353  10.2921  15.4121  18.3503  18.8089  18.8290

     occupation numbers 
     1.0000   1.0000   1.0000   1.0000   1.0000   1.0000   1.0000   1.0000
     1.0000   1.0000   1.0000   0.0000   0.0000   0.0000   0.0000

          k = 0.0832-0.3329 0.1272 (   697 PWs)   bands (ev):

   -27.6745 -12.1237  -8.7162  -8.5667  -7.7150  -4.1583   3.9434   5.5092
     6.1859   8.9877   9.9638  14.7248  17.0362  17.8934  18.9519

     occupation numbers 
     1.0000   1.0000   1.0000   1.0000   1.0000   1.0000   1.0000   1.0000
     1.0000   1.0000   1.0000   0.0000   0.0000   0.0000   0.0000

          k = 0.5826-0.3329-0.1272 (   693 PWs)   bands (ev):

   -27.5761 -11.6126  -9.1971  -8.8531  -8.4695  -4.0765   4.8012   5.7348
     6.0226   8.2802   9.8761  14.5548  18.8192  19.0918  19.2219

     occupation numbers 
     1.0000   1.0000   1.0000   1.0000   1.0000   1.0000   1.0000   1.0000
     1.0000   1.0000   1.0000   0.0000   0.0000   0.0000   0.0000

          k = 0.0832-0.1665 0.2121 (   701 PWs)   bands (ev):

   -27.7287 -11.6605  -8.8446  -8.6693  -8.0936  -4.1610   4.4461   6.1156
     6.5672   9.5423   9.9269  14.2033  15.1430  18.3777  18.6468

     occupation numbers 
     1.0000   1.0000   1.0000   1.0000   1.0000   1.0000   1.0000   1.0000
     1.0000   1.0000   1.0000   0.0000   0.0000   0.0000   0.0000

          k = 0.8324-0.1665-0.1697 (   696 PWs)   bands (ev):

   -27.6896 -11.6771  -9.1673  -8.8266  -7.9466  -4.1382   5.1403   5.7800
     6.2529  10.1623  10.2278  14.0271  15.4112  18.0606  18.6500

     occupation numbers 
     1.0000   1.0000   1.0000   1.0000   1.0000   1.0000   1.0000   1.0000
     1.0000   1.0000   1.0000   0.0000   0.0000   0.0000   0.0000

          k = 0.5826-0.1665-0.0424 (   706 PWs)   bands (ev):

   -27.6181 -12.0608  -9.0455  -8.7446  -7.8238  -4.0337   4.3238   5.6111
     5.8550   8.9346  10.4094  15.0365  17.9111  17.9865  18.7553

     occupation numbers 
     1.0000   1.0000   1.0000   1.0000   1.0000   1.0000   1.0000   1.0000
     1.0000   1.0000   1.0000   0.0000   0.0000   0.0000   0.0000

          k = 0.0832 0.0000 0.2969 (   699 PWs)   bands (ev):

   -27.7426 -11.3413  -9.1097  -8.6260  -8.5047  -4.0916   5.0617   6.5136
     6.5953  10.1722  10.2228  13.9073  14.1363  18.1432  18.6501

     occupation numbers 
     1.0000   1.0000   1.0000   1.0000   1.0000   1.0000   1.0000   1.0000
     1.0000   1.0000   1.0000   0.0000   0.0000   0.0000   0.0000

          k = 0.8324 0.0000-0.0848 (   697 PWs)   bands (ev):

   -27.7051 -11.4470  -9.5240  -8.6175  -8.2735  -3.9493   5.2705   6.1398
     6.2958  10.4654  10.7028  14.3744  14.5272  18.5207  18.5668

     occupation numbers 
     1.0000   1.0000   1.0000   1.0000   1.0000   1.0000   1.0000   1.0000
     1.0000   1.0000   1.0000   0.0000   0.0000   0.0000   0.0000

          k = 0.5826 0.0000 0.0424 (   696 PWs)   bands (ev):

   -27.6398 -12.2551  -9.1010  -8.4832  -7.5370  -4.0805   4.1021   5.5105
     5.7553   9.6163  10.4715  15.0411  17.3780  17.4546  18.4969

     occupation numbers 
     1.0000   1.0000   1.0000   1.0000   1.0000   1.0000   1.0000   1.0000
     1.0000   1.0000   1.0000   0.0000   0.0000   0.0000   0.0000

          k = 0.0832-0.8324-0.1272 (   702 PWs)   bands (ev):

   -27.7029 -11.5300  -9.3718  -8.7158  -8.1374  -4.0309   5.2381   6.0302
     6.2967  10.3527  10.5128  14.1728  14.7809  18.3573  18.5819

     occupation numbers 
     1.0000   1.0000   1.0000   1.0000   1.0000   1.0000   1.0000   1.0000
     1.0000   1.0000   1.0000   0.0000   0.0000   0.0000   0.0000

          k = 0.8324-0.8324-0.5090 (   692 PWs)   bands (ev):

   -27.6775 -11.5560  -9.5257  -8.8523  -7.9788  -3.9147   5.0885   5.9623
     6.1345  10.2400  10.6397  14.7710  15.2507  18.1013  18.5506

     occupation numbers 
     1.0000   1.0000   1.0000   1.0000   1.0000   1.0000   1.0000   1.0000
     1.0000   1.0000   1.0000   0.0000   0.0000   0.0000   0.0000

          k = 0.5826-0.8324-0.3817 (   702 PWs)   bands (ev):

   -27.6200 -12.0932  -8.9462  -8.7335  -7.7977  -4.1857   4.5499   5.4701
     5.8481   9.1781  10.2020  14.4761  17.8253  17.9982  18.6949

     occupation numbers 
     1.0000   1.0000   1.0000   1.0000   1.0000   1.0000   1.0000   1.0000
     1.0000   1.0000   1.0000   0.0000   0.0000   0.0000   0.0000

          k = 0.3329-0.6659-0.1697 (   695 PWs)   bands (ev):

   -27.5930 -11.7251  -9.1749  -8.8478  -8.2019  -4.1834   4.9694   5.6791
     5.8629   8.9083   9.6945  14.2303  18.4101  18.5936  19.2207

     occupation numbers 
     1.0000   1.0000   1.0000   1.0000   1.0000   1.0000   1.0000   1.0000
     1.0000   1.0000   1.0000   0.0000   0.0000   0.0000   0.0000

          k = 0.0832-0.6659-0.0424 (   698 PWs)   bands (ev):

   -27.6484 -12.0135  -9.2691  -8.6164  -7.7276  -4.0239   4.5057   5.6850
     5.8796   9.7838  10.5854  14.9042  16.6522  17.6709  18.7028

     occupation numbers 
     1.0000   1.0000   1.0000   1.0000   1.0000   1.0000   1.0000   1.0000
     1.0000   1.0000   1.0000   0.0000   0.0000   0.0000   0.0000

          k = 0.5826-0.6659-0.2969 (   697 PWs)   bands (ev):

   -27.5780 -11.6542  -9.1697  -8.8074  -8.3918  -4.2255   4.9426   5.7094
     5.9154   8.8865   9.3454  14.1112  18.6613  19.0877  19.2505

     occupation numbers 
     1.0000   1.0000   1.0000   1.0000   1.0000   1.0000   1.0000   1.0000
     1.0000   1.0000   1.0000   0.0000   0.0000   0.0000   0.0000

          k =-0.7491 0.6659 0.2121 (   699 PWs)   bands (ev):

   -27.6245 -11.9051  -8.9927  -8.7258  -7.9438  -4.2742   4.5703   5.4719
     6.1789   8.9243   9.8965  14.1399  17.9238  17.9894  19.0442

     occupation numbers 
     1.0000   1.0000   1.0000   1.0000   1.0000   1.0000   1.0000   1.0000
     1.0000   1.0000   1.0000   0.0000   0.0000   0.0000   0.0000

          k =-0.2497 0.6659-0.0424 (   701 PWs)   bands (ev):

   -27.6105 -11.7849  -9.1232  -9.0601  -7.9899  -3.9839   4.7346   5.7646
     5.8554   8.8407  10.3424  14.9425  17.7488  18.2835  19.0873

     occupation numbers 
     1.0000   1.0000   1.0000   1.0000   1.0000   1.0000   1.0000   1.0000
     1.0000   1.0000   1.0000   0.0000   0.0000   0.0000   0.0000

          k =-0.7491 0.8324 0.2969 (   701 PWs)   bands (ev):

   -27.6687 -11.8575  -8.9713  -8.8388  -7.8138  -4.2478   4.9849   5.4983
     6.1700   9.7852  10.0861  13.9576  16.3078  17.8403  18.8661

     occupation numbers 
     1.0000   1.0000   1.0000   1.0000   1.0000   1.0000   1.0000   1.0000
     1.0000   1.0000   1.0000   0.0000   0.0000   0.0000   0.0000

          k =-0.2497 0.8324 0.0424 (   695 PWs)   bands (ev):

   -27.6548 -11.7367  -9.3680  -8.8838  -7.8547  -3.9703   4.8948   5.8015
     6.0003   9.8450  10.5346  14.7958  16.1092  17.9470  18.7757

     occupation numbers 
     1.0000   1.0000   1.0000   1.0000   1.0000   1.0000   1.0000   1.0000
     1.0000   1.0000   1.0000   0.0000   0.0000   0.0000   0.0000

          k =-0.7491-0.0000-0.1272 (   694 PWs)   bands (ev):

   -27.6836 -11.8076  -9.2889  -8.5661  -7.9513  -4.0942   4.9896   5.7947
     6.1012  10.1543  10.5777  14.2489  15.5075  17.9820  19.0087

     occupation numbers 
     1.0000   1.0000   1.0000   1.0000   1.0000   1.0000   1.0000   1.0000
     1.0000   1.0000   1.0000   0.0000   0.0000   0.0000   0.0000

          k = 0.0000-0.0000-0.5090 (   694 PWs)   bands (ev):

   -27.7265 -10.9789  -9.7738  -8.6683  -8.6683  -3.8214   5.5735   6.5012
     6.5012  10.8159  10.8159  13.6111  14.4695  18.0947  18.6300

     occupation numbers 
     1.0000   1.0000   1.0000   1.0000   1.0000   1.0000   1.0000   1.0000
     1.0000   1.0000   1.0000   0.0000   0.0000   0.0000   0.0000

     the Fermi energy is    12.3863 ev

!    total energy              =    -138.96321294 Ry
     Harris-Foulkes estimate   =    -138.96321255 Ry
     estimated scf accuracy    <          2.7E-09 Ry

     The total energy is the sum of the following terms:

     one-electron contribution =     -23.57402712 Ry
     hartree contribution      =      25.48974933 Ry
     xc contribution           =     -26.23322985 Ry
     ewald contribution        =    -114.64570530 Ry
     smearing contrib. (-TS)   =      -0.00000000 Ry

     convergence has been achieved in   8 iterations

     negative rho (up, down):  1.788E-04 0.000E+00

     Forces acting on atoms (cartesian axes, Ry/au):

     atom    1 type  1   force =     0.00000000    0.00000000    0.00000000
     atom    2 type  2   force =     0.00000000    0.00000000   -0.00202098
     atom    3 type  2   force =    -0.00000000    0.00000000    0.00202098
     The non-local contrib.  to forces
     atom    1 type  1   force =    -0.00000000    0.00000000    0.00000000
     atom    2 type  2   force =     0.00000000    0.00000000    1.85263186
     atom    3 type  2   force =     0.00000000   -0.00000000   -1.85263186
     The ionic contribution  to forces
     atom    1 type  1   force =    -0.00000000   -0.00000000   -0.00000000
     atom    2 type  2   force =    -0.00000000    0.00000000   -6.51692744
     atom    3 type  2   force =     0.00000000   -0.00000000    6.51692744
     The local contribution  to forces
     atom    1 type  1   force =    -0.00000000    0.00000000    0.00000000
     atom    2 type  2   force =     0.00000000   -0.00000000    4.66224547
     atom    3 type  2   force =     0.00000000   -0.00000000   -4.66224547
     The core correction contribution to forces
     atom    1 type  1   force =     0.00000000    0.00000000   -0.00000000
     atom    2 type  2   force =     0.00000000    0.00000000    0.00000000
     atom    3 type  2   force =     0.00000000    0.00000000    0.00000000
     The Hubbard contrib.    to forces
     atom    1 type  1   force =     0.00000000    0.00000000    0.00000000
     atom    2 type  2   force =     0.00000000    0.00000000    0.00000000
     atom    3 type  2   force =     0.00000000    0.00000000    0.00000000
     The SCF correction term to forces
     atom    1 type  1   force =     0.00000000    0.00000000    0.00000000
     atom    2 type  2   force =     0.00000000    0.00000000    0.00002913
     atom    3 type  2   force =     0.00000000   -0.00000000   -0.00002913

     Total force =     0.002858     Total SCF correction =     0.000041


     Computing stress (Cartesian axis) and pressure


     negative rho (up, down):  1.788E-04 0.000E+00
          total   stress  (Ry/bohr**3)                   (kbar)     P=  306.74
   0.00207306  -0.00000000  -0.00000000        304.96     -0.00     -0.00
   0.00000000   0.00207306   0.00000000          0.00    304.96      0.00
  -0.00000000  -0.00000000   0.00210943         -0.00     -0.00    310.31

     kinetic stress (kbar)  20773.04     -0.00     -0.00
                               -0.00  20773.04      0.00
                               -0.00      0.00  18493.62

     local   stress (kbar)  -6357.14     -0.00      0.00
                               -0.00  -6357.14     -0.00
                                0.00     -0.00  -7434.62

     nonloc. stress (kbar)  15313.82     -0.00      0.00
                               -0.00  15313.82      0.00
                               -0.00      0.00  14270.39

     hartree stress (kbar)   6054.16      0.00     -0.00
                                0.00   6054.16     -0.00
                               -0.00     -0.00   6684.78

     exc-cor stress (kbar)  -4809.25      0.00     -0.00
                                0.00  -4809.25      0.00
                               -0.00      0.00  -4793.36

     corecor stress (kbar)  -1241.02     -0.00      0.00
                               -0.00  -1241.02     -0.00
                                0.00     -0.00  -1241.79

     ewald   stress (kbar) -29428.66      0.00      0.00
                                0.00 -29428.66      0.00
                                0.00      0.00 -25668.72

     hubbard stress (kbar)      0.00      0.00      0.00
                                0.00      0.00      0.00
                                0.00      0.00      0.00

     london  stress (kbar)      0.00      0.00      0.00
                                0.00      0.00      0.00
                                0.00      0.00      0.00

     DFT-D3  stress (kbar)      0.00      0.00      0.00
                                0.00      0.00      0.00
                                0.00      0.00      0.00

     XDM     stress (kbar)      0.00      0.00      0.00
                                0.00      0.00      0.00
                                0.00      0.00      0.00

     dft-nl  stress (kbar)      0.00      0.00      0.00
                                0.00      0.00      0.00
                                0.00      0.00      0.00

     TS-vdW  stress (kbar)      0.00      0.00      0.00
                                0.00      0.00      0.00
                                0.00      0.00      0.00



     Writing output data file CaO2.save/
 
     init_run     :      4.15s CPU      4.28s WALL (       2 calls)
     electrons    :    201.57s CPU    204.75s WALL (       9 calls)
     update_pot   :      8.19s CPU      8.20s WALL (       7 calls)
     forces       :      6.20s CPU      6.32s WALL (       9 calls)
     stress       :     13.22s CPU     13.57s WALL (       9 calls)

     Called by init_run:
     wfcinit      :      1.82s CPU      1.85s WALL (       2 calls)
     wfcinit:atom :      0.02s CPU      0.02s WALL (     108 calls)
     wfcinit:wfcr :      1.71s CPU      1.73s WALL (     108 calls)
     potinit      :      0.42s CPU      0.43s WALL (       2 calls)
     hinit0       :      1.78s CPU      1.79s WALL (       2 calls)

     Called by electrons:
     c_bands      :    164.08s CPU    165.46s WALL (      69 calls)
     sum_band     :     31.05s CPU     31.99s WALL (      69 calls)
     v_of_rho     :      3.31s CPU      3.33s WALL (      76 calls)
     v_h          :      0.13s CPU      0.13s WALL (      76 calls)
     v_xc         :      3.92s CPU      3.95s WALL (      94 calls)
     newd         :      3.52s CPU      4.42s WALL (      76 calls)
     mix_rho      :      0.24s CPU      0.25s WALL (      69 calls)

     Called by c_bands:
     init_us_2    :      2.84s CPU      2.85s WALL (    8532 calls)
     cegterg      :    157.83s CPU    158.93s WALL (    3726 calls)

     Called by sum_band:
     sum_band:bec :      0.06s CPU      0.07s WALL (    3726 calls)
     addusdens    :      3.85s CPU      4.63s WALL (      69 calls)

     Called by *egterg:
     h_psi        :    140.12s CPU    141.02s WALL (   15198 calls)
     s_psi        :      2.62s CPU      2.65s WALL (   15198 calls)
     g_psi        :      0.58s CPU      0.59s WALL (   11364 calls)
     cdiaghg      :      6.31s CPU      6.35s WALL (   14604 calls)
     cegterg:over :      3.76s CPU      3.79s WALL (   11364 calls)
     cegterg:upda :      2.70s CPU      2.72s WALL (   11364 calls)
     cegterg:last :      1.32s CPU      1.33s WALL (    4005 calls)

     Called by h_psi:
     h_psi:pot    :    139.83s CPU    140.70s WALL (   15198 calls)
     h_psi:calbec :      2.85s CPU      2.89s WALL (   15198 calls)
     vloc_psi     :    134.13s CPU    134.91s WALL (   15198 calls)
     add_vuspsi   :      2.75s CPU      2.78s WALL (   15198 calls)

     General routines
     calbec       :      4.28s CPU      4.32s WALL (   21354 calls)
     fft          :      1.68s CPU      1.68s WALL (    1213 calls)
     ffts         :      0.05s CPU      0.05s WALL (     145 calls)
     fftw         :    145.28s CPU    145.84s WALL (  372952 calls)
     interpolate  :      0.15s CPU      0.15s WALL (      76 calls)
 
 
     PWSCF        :  3m54.31s CPU     3m58.40s WALL

 
   This run was terminated on:  16:58: 4   2Apr2021            

=------------------------------------------------------------------------------=
   JOB DONE.
=------------------------------------------------------------------------------=
