
     Program PWSCF v.6.4.1 starts on 13Mar2020 at  6: 2:53 

     This program is part of the open-source Quantum ESPRESSO suite
     for quantum simulation of materials; please cite
         "P. Giannozzi et al., J. Phys.:Condens. Matter 21 395502 (2009);
         "P. Giannozzi et al., J. Phys.:Condens. Matter 29 465901 (2017);
          URL http://www.quantum-espresso.org", 
     in publications or presentations arising from this work. More details at
     http://www.quantum-espresso.org/quote

     Parallel version (MPI), running on     8 processors

     MPI processes distributed on     1 nodes
     R & G space division:  proc/nbgrp/npool/nimage =       8
     Waiting for input...
     Reading input from standard input

     Current dimensions of program PWSCF are:
     Max number of different atomic species (ntypx) = 10
     Max number of k-points (npk) =  40000
     Max angular momentum in pseudopotentials (lmaxx) =  3

     Subspace diagonalization in iterative solution of the eigenvalue problem:
     a serial algorithm will be used

 
     Parallelization info
     --------------------
     sticks:   dense  smooth     PW     G-vecs:    dense   smooth      PW
     Min         100      45     15                 1855      547     108
     Max         101      46     16                 1856      548     110
     Sum         805     361    121                14841     4381     869
 


     bravais-lattice index     =            2
     lattice parameter (alat)  =       8.5595  a.u.
     unit-cell volume          =     156.7788 (a.u.)^3
     number of atoms/cell      =            2
     number of atomic types    =            2
     number of electrons       =        16.00
     number of Kohn-Sham states=           12
     kinetic-energy cutoff     =      35.0000  Ry
     charge density cutoff     =     315.0000  Ry
     convergence threshold     =      1.0E-06
     mixing beta               =       0.4000
     number of iterations used =            8  plain     mixing
     Exchange-correlation      = SLA PW PBE PBE ( 1  4  3  4 0 0)
     nstep                     =          100


     celldm(1)=   8.559515  celldm(2)=   0.000000  celldm(3)=   0.000000
     celldm(4)=   0.000000  celldm(5)=   0.000000  celldm(6)=   0.000000

     crystal axes: (cart. coord. in units of alat)
               a(1) = (  -0.500000   0.000000   0.500000 )  
               a(2) = (   0.000000   0.500000   0.500000 )  
               a(3) = (  -0.500000   0.500000   0.000000 )  

     reciprocal axes: (cart. coord. in units 2 pi/alat)
               b(1) = ( -1.000000 -1.000000  1.000000 )  
               b(2) = (  1.000000  1.000000  1.000000 )  
               b(3) = ( -1.000000  1.000000 -1.000000 )  


     PseudoPot. # 1 for Ca read from file:
     ../pseudo/Ca.pbe-nsp-van.UPF
     MD5 check sum: cdab9c70410076c6adf7f3c9fd3601e0
     Pseudo is Ultrasoft + core correction, Zval = 10.0
     Generated by new atomic code, or converted to UPF format
     Using radial grid of  845 points,  6 beta functions with: 
                l(1) =   0
                l(2) =   0
                l(3) =   1
                l(4) =   1
                l(5) =   2
                l(6) =   2
     Q(r) pseudized with  6 coefficients,  rinner =    1.200   1.200   1.200
                                                       1.200   1.200

     PseudoPot. # 2 for O  read from file:
     ../pseudo/O.pbe-van_ak.UPF
     MD5 check sum: 572909515f9aa9498032b6eb5528d5f9
     Pseudo is Ultrasoft, Zval =  6.0
     Generated by new atomic code, or converted to UPF format
     Using radial grid of  737 points,  4 beta functions with: 
                l(1) =   0
                l(2) =   0
                l(3) =   1
                l(4) =   1
     Q(r) pseudized with  8 coefficients,  rinner =    0.800   0.800   0.800


     atomic species   valence    mass     pseudopotential
        Ca            10.00    40.07800     Ca( 1.00)
        O              6.00    15.99940     O ( 1.00)

     48 Sym. Ops., with inversion, found


                                    s                        frac. trans.

      isym =  1     identity                                     

 cryst.   s( 1) = (     1          0          0      )
                  (     0          1          0      )
                  (     0          0          1      )

 cart.    s( 1) = (  1.0000000  0.0000000  0.0000000 )
                  (  0.0000000  1.0000000  0.0000000 )
                  (  0.0000000  0.0000000  1.0000000 )


      isym =  2     180 deg rotation - cart. axis [0,0,1]        

 cryst.   s( 2) = (     0          1         -1      )
                  (     1          0         -1      )
                  (     0          0         -1      )

 cart.    s( 2) = ( -1.0000000  0.0000000  0.0000000 )
                  (  0.0000000 -1.0000000  0.0000000 )
                  (  0.0000000  0.0000000  1.0000000 )


      isym =  3     180 deg rotation - cart. axis [0,1,0]        

 cryst.   s( 3) = (    -1          0          0      )
                  (    -1          0          1      )
                  (    -1          1          0      )

 cart.    s( 3) = ( -1.0000000  0.0000000  0.0000000 )
                  (  0.0000000  1.0000000  0.0000000 )
                  (  0.0000000  0.0000000 -1.0000000 )


      isym =  4     180 deg rotation - cart. axis [1,0,0]        

 cryst.   s( 4) = (     0         -1          1      )
                  (     0         -1          0      )
                  (     1         -1          0      )

 cart.    s( 4) = (  1.0000000  0.0000000  0.0000000 )
                  (  0.0000000 -1.0000000  0.0000000 )
                  (  0.0000000  0.0000000 -1.0000000 )


      isym =  5     180 deg rotation - cart. axis [1,1,0]        

 cryst.   s( 5) = (     0         -1          0      )
                  (    -1          0          0      )
                  (     0          0         -1      )

 cart.    s( 5) = (  0.0000000  1.0000000  0.0000000 )
                  (  1.0000000  0.0000000  0.0000000 )
                  (  0.0000000  0.0000000 -1.0000000 )


      isym =  6     180 deg rotation - cart. axis [1,-1,0]       

 cryst.   s( 6) = (    -1          0          1      )
                  (     0         -1          1      )
                  (     0          0          1      )

 cart.    s( 6) = (  0.0000000 -1.0000000  0.0000000 )
                  ( -1.0000000  0.0000000  0.0000000 )
                  (  0.0000000  0.0000000 -1.0000000 )


      isym =  7      90 deg rotation - cart. axis [0,0,-1]       

 cryst.   s( 7) = (     0          1          0      )
                  (     0          1         -1      )
                  (    -1          1          0      )

 cart.    s( 7) = (  0.0000000  1.0000000  0.0000000 )
                  ( -1.0000000  0.0000000  0.0000000 )
                  (  0.0000000  0.0000000  1.0000000 )


      isym =  8      90 deg rotation - cart. axis [0,0,1]        

 cryst.   s( 8) = (     1          0         -1      )
                  (     1          0          0      )
                  (     1         -1          0      )

 cart.    s( 8) = (  0.0000000 -1.0000000  0.0000000 )
                  (  1.0000000  0.0000000  0.0000000 )
                  (  0.0000000  0.0000000  1.0000000 )


      isym =  9     180 deg rotation - cart. axis [1,0,1]        

 cryst.   s( 9) = (    -1          0          0      )
                  (     0          0         -1      )
                  (     0         -1          0      )

 cart.    s( 9) = (  0.0000000  0.0000000  1.0000000 )
                  (  0.0000000 -1.0000000  0.0000000 )
                  (  1.0000000  0.0000000  0.0000000 )


      isym = 10     180 deg rotation - cart. axis [-1,0,1]       

 cryst.   s(10) = (     1          0          0      )
                  (     1         -1          0      )
                  (     1          0         -1      )

 cart.    s(10) = (  0.0000000  0.0000000 -1.0000000 )
                  (  0.0000000 -1.0000000  0.0000000 )
                  ( -1.0000000  0.0000000  0.0000000 )


      isym = 11      90 deg rotation - cart. axis [0,1,0]        

 cryst.   s(11) = (     0          1         -1      )
                  (    -1          1          0      )
                  (     0          1          0      )

 cart.    s(11) = (  0.0000000  0.0000000  1.0000000 )
                  (  0.0000000  1.0000000  0.0000000 )
                  ( -1.0000000  0.0000000  0.0000000 )


      isym = 12      90 deg rotation - cart. axis [0,-1,0]       

 cryst.   s(12) = (     0         -1          1      )
                  (     0          0          1      )
                  (    -1          0          1      )

 cart.    s(12) = (  0.0000000  0.0000000 -1.0000000 )
                  (  0.0000000  1.0000000  0.0000000 )
                  (  1.0000000  0.0000000  0.0000000 )


      isym = 13     180 deg rotation - cart. axis [0,1,1]        

 cryst.   s(13) = (    -1          1          0      )
                  (     0          1          0      )
                  (     0          1         -1      )

 cart.    s(13) = ( -1.0000000  0.0000000  0.0000000 )
                  (  0.0000000  0.0000000  1.0000000 )
                  (  0.0000000  1.0000000  0.0000000 )


      isym = 14     180 deg rotation - cart. axis [0,1,-1]       

 cryst.   s(14) = (     0          0         -1      )
                  (     0         -1          0      )
                  (    -1          0          0      )

 cart.    s(14) = ( -1.0000000  0.0000000  0.0000000 )
                  (  0.0000000  0.0000000 -1.0000000 )
                  (  0.0000000 -1.0000000  0.0000000 )


      isym = 15      90 deg rotation - cart. axis [-1,0,0]       

 cryst.   s(15) = (     0          0          1      )
                  (    -1          0          1      )
                  (     0         -1          1      )

 cart.    s(15) = (  1.0000000  0.0000000  0.0000000 )
                  (  0.0000000  0.0000000  1.0000000 )
                  (  0.0000000 -1.0000000  0.0000000 )


      isym = 16      90 deg rotation - cart. axis [1,0,0]        

 cryst.   s(16) = (     1         -1          0      )
                  (     1          0         -1      )
                  (     1          0          0      )

 cart.    s(16) = (  1.0000000  0.0000000  0.0000000 )
                  (  0.0000000  0.0000000 -1.0000000 )
                  (  0.0000000  1.0000000  0.0000000 )


      isym = 17     120 deg rotation - cart. axis [-1,-1,-1]     

 cryst.   s(17) = (    -1          0          1      )
                  (    -1          1          0      )
                  (    -1          0          0      )

 cart.    s(17) = (  0.0000000  1.0000000  0.0000000 )
                  (  0.0000000  0.0000000  1.0000000 )
                  (  1.0000000  0.0000000  0.0000000 )


      isym = 18     120 deg rotation - cart. axis [-1,1,1]       

 cryst.   s(18) = (     0          1          0      )
                  (     0          0          1      )
                  (     1          0          0      )

 cart.    s(18) = (  0.0000000 -1.0000000  0.0000000 )
                  (  0.0000000  0.0000000  1.0000000 )
                  ( -1.0000000  0.0000000  0.0000000 )


      isym = 19     120 deg rotation - cart. axis [1,1,-1]       

 cryst.   s(19) = (     1          0         -1      )
                  (     0          0         -1      )
                  (     0          1         -1      )

 cart.    s(19) = (  0.0000000  1.0000000  0.0000000 )
                  (  0.0000000  0.0000000 -1.0000000 )
                  ( -1.0000000  0.0000000  0.0000000 )


      isym = 20     120 deg rotation - cart. axis [1,-1,1]       

 cryst.   s(20) = (     0         -1          0      )
                  (     1         -1          0      )
                  (     0         -1          1      )

 cart.    s(20) = (  0.0000000 -1.0000000  0.0000000 )
                  (  0.0000000  0.0000000 -1.0000000 )
                  (  1.0000000  0.0000000  0.0000000 )


      isym = 21     120 deg rotation - cart. axis [1,1,1]        

 cryst.   s(21) = (     0          0         -1      )
                  (     0          1         -1      )
                  (     1          0         -1      )

 cart.    s(21) = (  0.0000000  0.0000000  1.0000000 )
                  (  1.0000000  0.0000000  0.0000000 )
                  (  0.0000000  1.0000000  0.0000000 )


      isym = 22     120 deg rotation - cart. axis [-1,1,-1]      

 cryst.   s(22) = (    -1          1          0      )
                  (    -1          0          0      )
                  (    -1          0          1      )

 cart.    s(22) = (  0.0000000  0.0000000  1.0000000 )
                  ( -1.0000000  0.0000000  0.0000000 )
                  (  0.0000000 -1.0000000  0.0000000 )


      isym = 23     120 deg rotation - cart. axis [1,-1,-1]      

 cryst.   s(23) = (     0          0          1      )
                  (     1          0          0      )
                  (     0          1          0      )

 cart.    s(23) = (  0.0000000  0.0000000 -1.0000000 )
                  ( -1.0000000  0.0000000  0.0000000 )
                  (  0.0000000  1.0000000  0.0000000 )


      isym = 24     120 deg rotation - cart. axis [-1,-1,1]      

 cryst.   s(24) = (     1         -1          0      )
                  (     0         -1          1      )
                  (     0         -1          0      )

 cart.    s(24) = (  0.0000000  0.0000000 -1.0000000 )
                  (  1.0000000  0.0000000  0.0000000 )
                  (  0.0000000 -1.0000000  0.0000000 )


      isym = 25     inversion                                    

 cryst.   s(25) = (    -1          0          0      )
                  (     0         -1          0      )
                  (     0          0         -1      )

 cart.    s(25) = ( -1.0000000  0.0000000  0.0000000 )
                  (  0.0000000 -1.0000000  0.0000000 )
                  (  0.0000000  0.0000000 -1.0000000 )


      isym = 26     inv. 180 deg rotation - cart. axis [0,0,1]   

 cryst.   s(26) = (     0         -1          1      )
                  (    -1          0          1      )
                  (     0          0          1      )

 cart.    s(26) = (  1.0000000  0.0000000  0.0000000 )
                  (  0.0000000  1.0000000  0.0000000 )
                  (  0.0000000  0.0000000 -1.0000000 )


      isym = 27     inv. 180 deg rotation - cart. axis [0,1,0]   

 cryst.   s(27) = (     1          0          0      )
                  (     1          0         -1      )
                  (     1         -1          0      )

 cart.    s(27) = (  1.0000000  0.0000000  0.0000000 )
                  (  0.0000000 -1.0000000  0.0000000 )
                  (  0.0000000  0.0000000  1.0000000 )


      isym = 28     inv. 180 deg rotation - cart. axis [1,0,0]   

 cryst.   s(28) = (     0          1         -1      )
                  (     0          1          0      )
                  (    -1          1          0      )

 cart.    s(28) = ( -1.0000000  0.0000000  0.0000000 )
                  (  0.0000000  1.0000000  0.0000000 )
                  (  0.0000000  0.0000000  1.0000000 )


      isym = 29     inv. 180 deg rotation - cart. axis [1,1,0]   

 cryst.   s(29) = (     0          1          0      )
                  (     1          0          0      )
                  (     0          0          1      )

 cart.    s(29) = (  0.0000000 -1.0000000  0.0000000 )
                  ( -1.0000000  0.0000000  0.0000000 )
                  (  0.0000000  0.0000000  1.0000000 )


      isym = 30     inv. 180 deg rotation - cart. axis [1,-1,0]  

 cryst.   s(30) = (     1          0         -1      )
                  (     0          1         -1      )
                  (     0          0         -1      )

 cart.    s(30) = (  0.0000000  1.0000000  0.0000000 )
                  (  1.0000000  0.0000000  0.0000000 )
                  (  0.0000000  0.0000000  1.0000000 )


      isym = 31     inv.  90 deg rotation - cart. axis [0,0,-1]  

 cryst.   s(31) = (     0         -1          0      )
                  (     0         -1          1      )
                  (     1         -1          0      )

 cart.    s(31) = (  0.0000000 -1.0000000  0.0000000 )
                  (  1.0000000  0.0000000  0.0000000 )
                  (  0.0000000  0.0000000 -1.0000000 )


      isym = 32     inv.  90 deg rotation - cart. axis [0,0,1]   

 cryst.   s(32) = (    -1          0          1      )
                  (    -1          0          0      )
                  (    -1          1          0      )

 cart.    s(32) = (  0.0000000  1.0000000  0.0000000 )
                  ( -1.0000000  0.0000000  0.0000000 )
                  (  0.0000000  0.0000000 -1.0000000 )


      isym = 33     inv. 180 deg rotation - cart. axis [1,0,1]   

 cryst.   s(33) = (     1          0          0      )
                  (     0          0          1      )
                  (     0          1          0      )

 cart.    s(33) = (  0.0000000  0.0000000 -1.0000000 )
                  (  0.0000000  1.0000000  0.0000000 )
                  ( -1.0000000  0.0000000  0.0000000 )


      isym = 34     inv. 180 deg rotation - cart. axis [-1,0,1]  

 cryst.   s(34) = (    -1          0          0      )
                  (    -1          1          0      )
                  (    -1          0          1      )

 cart.    s(34) = (  0.0000000  0.0000000  1.0000000 )
                  (  0.0000000  1.0000000  0.0000000 )
                  (  1.0000000  0.0000000  0.0000000 )


      isym = 35     inv.  90 deg rotation - cart. axis [0,1,0]   

 cryst.   s(35) = (     0         -1          1      )
                  (     1         -1          0      )
                  (     0         -1          0      )

 cart.    s(35) = (  0.0000000  0.0000000 -1.0000000 )
                  (  0.0000000 -1.0000000  0.0000000 )
                  (  1.0000000  0.0000000  0.0000000 )


      isym = 36     inv.  90 deg rotation - cart. axis [0,-1,0]  

 cryst.   s(36) = (     0          1         -1      )
                  (     0          0         -1      )
                  (     1          0         -1      )

 cart.    s(36) = (  0.0000000  0.0000000  1.0000000 )
                  (  0.0000000 -1.0000000  0.0000000 )
                  ( -1.0000000  0.0000000  0.0000000 )


      isym = 37     inv. 180 deg rotation - cart. axis [0,1,1]   

 cryst.   s(37) = (     1         -1          0      )
                  (     0         -1          0      )
                  (     0         -1          1      )

 cart.    s(37) = (  1.0000000  0.0000000  0.0000000 )
                  (  0.0000000  0.0000000 -1.0000000 )
                  (  0.0000000 -1.0000000  0.0000000 )


      isym = 38     inv. 180 deg rotation - cart. axis [0,1,-1]  

 cryst.   s(38) = (     0          0          1      )
                  (     0          1          0      )
                  (     1          0          0      )

 cart.    s(38) = (  1.0000000  0.0000000  0.0000000 )
                  (  0.0000000  0.0000000  1.0000000 )
                  (  0.0000000  1.0000000  0.0000000 )


      isym = 39     inv.  90 deg rotation - cart. axis [-1,0,0]  

 cryst.   s(39) = (     0          0         -1      )
                  (     1          0         -1      )
                  (     0          1         -1      )

 cart.    s(39) = ( -1.0000000  0.0000000  0.0000000 )
                  (  0.0000000  0.0000000 -1.0000000 )
                  (  0.0000000  1.0000000  0.0000000 )


      isym = 40     inv.  90 deg rotation - cart. axis [1,0,0]   

 cryst.   s(40) = (    -1          1          0      )
                  (    -1          0          1      )
                  (    -1          0          0      )

 cart.    s(40) = ( -1.0000000  0.0000000  0.0000000 )
                  (  0.0000000  0.0000000  1.0000000 )
                  (  0.0000000 -1.0000000  0.0000000 )


      isym = 41     inv. 120 deg rotation - cart. axis [-1,-1,-1]

 cryst.   s(41) = (     1          0         -1      )
                  (     1         -1          0      )
                  (     1          0          0      )

 cart.    s(41) = (  0.0000000 -1.0000000  0.0000000 )
                  (  0.0000000  0.0000000 -1.0000000 )
                  ( -1.0000000  0.0000000  0.0000000 )


      isym = 42     inv. 120 deg rotation - cart. axis [-1,1,1]  

 cryst.   s(42) = (     0         -1          0      )
                  (     0          0         -1      )
                  (    -1          0          0      )

 cart.    s(42) = (  0.0000000  1.0000000  0.0000000 )
                  (  0.0000000  0.0000000 -1.0000000 )
                  (  1.0000000  0.0000000  0.0000000 )


      isym = 43     inv. 120 deg rotation - cart. axis [1,1,-1]  

 cryst.   s(43) = (    -1          0          1      )
                  (     0          0          1      )
                  (     0         -1          1      )

 cart.    s(43) = (  0.0000000 -1.0000000  0.0000000 )
                  (  0.0000000  0.0000000  1.0000000 )
                  (  1.0000000  0.0000000  0.0000000 )


      isym = 44     inv. 120 deg rotation - cart. axis [1,-1,1]  

 cryst.   s(44) = (     0          1          0      )
                  (    -1          1          0      )
                  (     0          1         -1      )

 cart.    s(44) = (  0.0000000  1.0000000  0.0000000 )
                  (  0.0000000  0.0000000  1.0000000 )
                  ( -1.0000000  0.0000000  0.0000000 )


      isym = 45     inv. 120 deg rotation - cart. axis [1,1,1]   

 cryst.   s(45) = (     0          0          1      )
                  (     0         -1          1      )
                  (    -1          0          1      )

 cart.    s(45) = (  0.0000000  0.0000000 -1.0000000 )
                  ( -1.0000000  0.0000000  0.0000000 )
                  (  0.0000000 -1.0000000  0.0000000 )


      isym = 46     inv. 120 deg rotation - cart. axis [-1,1,-1] 

 cryst.   s(46) = (     1         -1          0      )
                  (     1          0          0      )
                  (     1          0         -1      )

 cart.    s(46) = (  0.0000000  0.0000000 -1.0000000 )
                  (  1.0000000  0.0000000  0.0000000 )
                  (  0.0000000  1.0000000  0.0000000 )


      isym = 47     inv. 120 deg rotation - cart. axis [1,-1,-1] 

 cryst.   s(47) = (     0          0         -1      )
                  (    -1          0          0      )
                  (     0         -1          0      )

 cart.    s(47) = (  0.0000000  0.0000000  1.0000000 )
                  (  1.0000000  0.0000000  0.0000000 )
                  (  0.0000000 -1.0000000  0.0000000 )


      isym = 48     inv. 120 deg rotation - cart. axis [-1,-1,1] 

 cryst.   s(48) = (    -1          1          0      )
                  (     0          1         -1      )
                  (     0          1          0      )

 cart.    s(48) = (  0.0000000  0.0000000  1.0000000 )
                  ( -1.0000000  0.0000000  0.0000000 )
                  (  0.0000000  1.0000000  0.0000000 )


     point group O_h (m-3m) 
     there are 10 classes
     the character table:

       E     8C3   3C2   6C4   6C2'  i     8S6   3s_h  6S4   6s_d 
A_1g   1.00  1.00  1.00  1.00  1.00  1.00  1.00  1.00  1.00  1.00
A_2g   1.00  1.00  1.00 -1.00 -1.00  1.00  1.00  1.00 -1.00 -1.00
E_g    2.00 -1.00  2.00  0.00  0.00  2.00 -1.00  2.00  0.00  0.00
T_1g   3.00  0.00 -1.00  1.00 -1.00  3.00  0.00 -1.00  1.00 -1.00
T_2g   3.00  0.00 -1.00 -1.00  1.00  3.00  0.00 -1.00 -1.00  1.00
A_1u   1.00  1.00  1.00  1.00  1.00 -1.00 -1.00 -1.00 -1.00 -1.00
A_2u   1.00  1.00  1.00 -1.00 -1.00 -1.00 -1.00 -1.00  1.00  1.00
E_u    2.00 -1.00  2.00  0.00  0.00 -2.00  1.00 -2.00  0.00  0.00
T_1u   3.00  0.00 -1.00  1.00 -1.00 -3.00  0.00  1.00 -1.00  1.00
T_2u   3.00  0.00 -1.00 -1.00  1.00 -3.00  0.00  1.00  1.00 -1.00

     the symmetry operations in each class and the name of the first element:

     E        1
          identity                                               
     8C3     17   19   20   18   24   21   22   23
          120 deg rotation - cart. axis [-1,-1,-1]               
     3C2      2    4    3
          180 deg rotation - cart. axis [0,0,1]                  
     6C4      7    8   15   16   12   11
           90 deg rotation - cart. axis [0,0,-1]                 
     6C2'     5    6   14   13   10    9
          180 deg rotation - cart. axis [1,1,0]                  
     i       25
          inversion                                              
     8S6     41   43   44   42   48   45   46   47
          inv. 120 deg rotation - cart. axis [-1,-1,-1]          
     3s_h    26   28   27
          inv. 180 deg rotation - cart. axis [0,0,1]             
     6S4     31   32   39   40   36   35
          inv.  90 deg rotation - cart. axis [0,0,-1]            
     6s_d    29   30   38   37   34   33
          inv. 180 deg rotation - cart. axis [1,1,0]             

   Cartesian axes

     site n.     atom                  positions (alat units)
         1           Ca  tau(   1) = (   0.0000000   0.0000000   0.0000000  )
         2           O   tau(   2) = (  -0.5000000   0.5000000   0.5000000  )

   Crystallographic axes

     site n.     atom                  positions (cryst. coord.)
         1           Ca  tau(   1) = (  0.0000000  0.0000000  0.0000000  )
         2           O   tau(   2) = (  0.5000000  0.5000000  0.5000000  )

     number of k points=     8  gaussian smearing, width (Ry)=  0.0100
                       cart. coord. in units 2pi/alat
        k(    1) = (   0.0000000   0.0000000   0.0000000), wk =   0.0312500
        k(    2) = (  -0.2500000   0.2500000  -0.2500000), wk =   0.2500000
        k(    3) = (   0.5000000  -0.5000000   0.5000000), wk =   0.1250000
        k(    4) = (   0.0000000   0.5000000   0.0000000), wk =   0.1875000
        k(    5) = (   0.7500000  -0.2500000   0.7500000), wk =   0.7500000
        k(    6) = (   0.5000000   0.0000000   0.5000000), wk =   0.3750000
        k(    7) = (   0.0000000  -1.0000000   0.0000000), wk =   0.0937500
        k(    8) = (  -0.5000000  -1.0000000   0.0000000), wk =   0.1875000

                       cryst. coord.
        k(    1) = (   0.0000000   0.0000000   0.0000000), wk =   0.0312500
        k(    2) = (   0.0000000   0.0000000   0.2500000), wk =   0.2500000
        k(    3) = (   0.0000000   0.0000000  -0.5000000), wk =   0.1250000
        k(    4) = (   0.0000000   0.2500000   0.2500000), wk =   0.1875000
        k(    5) = (   0.0000000   0.2500000  -0.5000000), wk =   0.7500000
        k(    6) = (   0.0000000   0.2500000  -0.2500000), wk =   0.3750000
        k(    7) = (   0.0000000  -0.5000000  -0.5000000), wk =   0.0937500
        k(    8) = (   0.2500000  -0.5000000  -0.2500000), wk =   0.1875000

     Dense  grid:    14841 G-vectors     FFT dimensions: (  36,  36,  36)

     Smooth grid:     4381 G-vectors     FFT dimensions: (  24,  24,  24)

     Dynamical RAM for                 wfc:       0.01 MB

     Dynamical RAM for     wfc (w. buffer):       0.11 MB

     Dynamical RAM for           str. fact:       0.06 MB

     Dynamical RAM for           local pot:       0.00 MB

     Dynamical RAM for          nlocal pot:       0.03 MB

     Dynamical RAM for                qrad:       7.76 MB

     Dynamical RAM for          rho,v,vnew:       0.23 MB

     Dynamical RAM for               rhoin:       0.08 MB

     Dynamical RAM for            rho*nmix:       0.45 MB

     Dynamical RAM for           G-vectors:       0.11 MB

     Dynamical RAM for          h,s,v(r/c):       0.11 MB

     Dynamical RAM for          <psi|beta>:       0.00 MB

     Dynamical RAM for                 psi:       0.05 MB

     Dynamical RAM for                hpsi:       0.05 MB

     Dynamical RAM for                spsi:       0.05 MB

     Dynamical RAM for      wfcinit/wfcrot:       0.03 MB

     Dynamical RAM for           addusdens:       5.29 MB

     Dynamical RAM for          addusforce:       5.40 MB

     Dynamical RAM for         addusstress:       5.69 MB

     Estimated static dynamical RAM per process >       9.16 MB

     Estimated max dynamical RAM per process >      14.85 MB

     Estimated total dynamical RAM >     118.80 MB

     Check: negative core charge=   -0.000004

     Initial potential from superposition of free atoms

     starting charge   15.99454, renormalised to   16.00000

     negative rho (up, down):  1.684E-04 0.000E+00
     Starting wfcs are   14 randomized atomic wfcs

     total cpu time spent up to now is        2.9 secs

     Self-consistent Calculation

     iteration #  1     ecut=    35.00 Ry     beta= 0.40
     Davidson diagonalization with overlap
     ethr =  1.00E-02,  avg # of iterations =  2.4

     negative rho (up, down):  1.745E-04 0.000E+00

     total cpu time spent up to now is        3.1 secs

     total energy              =    -106.93649371 Ry
     Harris-Foulkes estimate   =    -107.17738082 Ry
     estimated scf accuracy    <       0.46446410 Ry

     iteration #  2     ecut=    35.00 Ry     beta= 0.40
     Davidson diagonalization with overlap
     ethr =  2.90E-03,  avg # of iterations =  2.5

     negative rho (up, down):  1.685E-04 0.000E+00

     total cpu time spent up to now is        3.2 secs

     total energy              =    -107.05411121 Ry
     Harris-Foulkes estimate   =    -107.07688580 Ry
     estimated scf accuracy    <       0.06131492 Ry

     iteration #  3     ecut=    35.00 Ry     beta= 0.40
     Davidson diagonalization with overlap
     ethr =  3.83E-04,  avg # of iterations =  2.5

     negative rho (up, down):  1.653E-04 0.000E+00

     total cpu time spent up to now is        3.3 secs

     total energy              =    -107.06660322 Ry
     Harris-Foulkes estimate   =    -107.06582488 Ry
     estimated scf accuracy    <       0.00531168 Ry

     iteration #  4     ecut=    35.00 Ry     beta= 0.40
     Davidson diagonalization with overlap
     ethr =  3.32E-05,  avg # of iterations =  2.9

     negative rho (up, down):  1.659E-04 0.000E+00

     total cpu time spent up to now is        3.5 secs

     total energy              =    -107.06693537 Ry
     Harris-Foulkes estimate   =    -107.06692153 Ry
     estimated scf accuracy    <       0.00002828 Ry

     iteration #  5     ecut=    35.00 Ry     beta= 0.40
     Davidson diagonalization with overlap
     ethr =  1.77E-07,  avg # of iterations =  3.4

     negative rho (up, down):  1.666E-04 0.000E+00

     total cpu time spent up to now is        3.6 secs

     total energy              =    -107.06699569 Ry
     Harris-Foulkes estimate   =    -107.06698785 Ry
     estimated scf accuracy    <       0.00000848 Ry

     iteration #  6     ecut=    35.00 Ry     beta= 0.40
     Davidson diagonalization with overlap
     ethr =  5.30E-08,  avg # of iterations =  2.9

     negative rho (up, down):  1.667E-04 0.000E+00

     total cpu time spent up to now is        3.8 secs

     total energy              =    -107.06699827 Ry
     Harris-Foulkes estimate   =    -107.06699905 Ry
     estimated scf accuracy    <       0.00000310 Ry

     iteration #  7     ecut=    35.00 Ry     beta= 0.40
     Davidson diagonalization with overlap
     ethr =  1.93E-08,  avg # of iterations =  2.8

     negative rho (up, down):  1.667E-04 0.000E+00

     total cpu time spent up to now is        3.9 secs

     End of self-consistent calculation

          k = 0.0000 0.0000 0.0000 (   537 PWs)   bands (ev):

   -26.9930  -7.5662  -7.5662  -7.5662  -5.8553  10.0132  10.0132  10.0132
    16.3594  16.6288  16.6288  16.6288

     occupation numbers 
     1.0000   1.0000   1.0000   1.0000   1.0000   1.0000   1.0000   1.0000
     0.0000   0.0000   0.0000   0.0000

          k =-0.2500 0.2500-0.2500 (   549 PWs)   bands (ev):

   -26.8823  -8.8913  -7.6069  -7.6069  -4.5522   8.2622   9.1176   9.1176
    16.7756  17.8248  17.8248  18.6069

     occupation numbers 
     1.0000   1.0000   1.0000   1.0000   1.0000   1.0000   1.0000   1.0000
     0.0000   0.0000   0.0000   0.0000

          k = 0.5000-0.5000 0.5000 (   568 PWs)   bands (ev):

   -26.7684  -9.6978  -7.6466  -7.6466  -3.7554   6.9365   8.4095   8.4095
    17.9279  19.3507  19.3507  19.9492

     occupation numbers 
     1.0000   1.0000   1.0000   1.0000   1.0000   1.0000   1.0000   1.0000
     0.0000   0.0000   0.0000   0.0000

          k = 0.0000 0.5000 0.0000 (   560 PWs)   bands (ev):

   -26.8480  -8.6625  -7.7705  -7.7705  -4.8490   8.0413   9.7068   9.7068
    14.7744  18.1335  18.9564  18.9566

     occupation numbers 
     1.0000   1.0000   1.0000   1.0000   1.0000   1.0000   1.0000   1.0000
     0.0000   0.0000   0.0000   0.0000

          k = 0.7500-0.2500 0.7500 (   550 PWs)   bands (ev):

   -26.7367  -9.1186  -8.0332  -7.8127  -4.5828   8.0720   8.7791   9.0355
    15.6583  18.9464  19.9704  20.2896

     occupation numbers 
     1.0000   1.0000   1.0000   1.0000   1.0000   1.0000   1.0000   1.0000
     0.0000   0.0000   0.0000   0.0000

          k = 0.5000 0.0000 0.5000 (   548 PWs)   bands (ev):

   -26.7720  -9.2018  -8.0481  -7.6506  -4.2285   7.5893   8.5497   9.1350
    17.0956  18.3090  18.6144  19.6062

     occupation numbers 
     1.0000   1.0000   1.0000   1.0000   1.0000   1.0000   1.0000   1.0000
     0.0000   0.0000   0.0000   0.0000

          k = 0.0000-1.0000 0.0000 (   524 PWs)   bands (ev):

   -26.7043  -8.6461  -7.9719  -7.9719  -5.6824   8.8790   9.7097   9.7097
    13.5218  19.4760  19.9266  20.7789

     occupation numbers 
     1.0000   1.0000   1.0000   1.0000   1.0000   1.0000   1.0000   1.0000
     0.0000   0.0000   0.0000   0.0000

          k =-0.5000-1.0000 0.0000 (   524 PWs)   bands (ev):

   -26.7013  -8.5130  -8.3172  -8.3172  -4.7889   8.4193   9.0057   9.0057
    16.8529  16.8529  19.7069  20.7868

     occupation numbers 
     1.0000   1.0000   1.0000   1.0000   1.0000   1.0000   1.0000   1.0000
     0.0000   0.0000   0.0000   0.0000

     the Fermi energy is    11.9982 ev

!    total energy              =    -107.06699933 Ry
     Harris-Foulkes estimate   =    -107.06699920 Ry
     estimated scf accuracy    <       0.00000037 Ry

     The total energy is the sum of the following terms:

     one-electron contribution =     -18.24261792 Ry
     hartree contribution      =      18.59334959 Ry
     xc contribution           =     -19.29250069 Ry
     ewald contribution        =     -88.12523030 Ry
     smearing contrib. (-TS)   =      -0.00000000 Ry

     convergence has been achieved in   7 iterations

     negative rho (up, down):  1.667E-04 0.000E+00

     Forces acting on atoms (cartesian axes, Ry/au):

     atom    1 type  1   force =     0.00000000    0.00000000    0.00000000
     atom    2 type  2   force =     0.00000000    0.00000000    0.00000000
     The non-local contrib.  to forces
     atom    1 type  1   force =     0.00000000    0.00000000   -0.00000000
     atom    2 type  2   force =     0.00000000    0.00000000    0.00000000
     The ionic contribution  to forces
     atom    1 type  1   force =     0.00000000   -0.00000000   -0.00000000
     atom    2 type  2   force =    -0.00000000    0.00000000    0.00000000
     The local contribution  to forces
     atom    1 type  1   force =     0.00000000   -0.00000000   -0.00000000
     atom    2 type  2   force =    -0.00000000    0.00000000    0.00000000
     The core correction contribution to forces
     atom    1 type  1   force =     0.00000000    0.00000000    0.00000000
     atom    2 type  2   force =     0.00000000    0.00000000    0.00000000
     The Hubbard contrib.    to forces
     atom    1 type  1   force =     0.00000000    0.00000000    0.00000000
     atom    2 type  2   force =     0.00000000    0.00000000    0.00000000
     The SCF correction term to forces
     atom    1 type  1   force =     0.00000000   -0.00000000    0.00000000
     atom    2 type  2   force =     0.00000000    0.00000000   -0.00000000

     Total force =     0.000000     Total SCF correction =     0.000000


     Computing stress (Cartesian axis) and pressure


     negative rho (up, down):  1.667E-04 0.000E+00
          total   stress  (Ry/bohr**3)                   (kbar)     P=  306.53
   0.00208373  -0.00000000  -0.00000000        306.53     -0.00     -0.00
  -0.00000000   0.00208373   0.00000000         -0.00    306.53      0.00
  -0.00000000   0.00000000   0.00208373         -0.00      0.00    306.53

     kinetic stress (kbar)  16923.24      0.00      0.00
                                0.00  16923.24     -0.00
                                0.00     -0.00  16923.24

     local   stress (kbar)  -3485.81     -0.00     -0.00
                               -0.00  -3485.81      0.00
                               -0.00      0.00  -3485.81

     nonloc. stress (kbar)  14258.02      0.00      0.00
                                0.00  14258.02     -0.00
                                0.00     -0.00  14258.02

     hartree stress (kbar)   5815.36      0.00      0.00
                                0.00   5815.36      0.00
                                0.00      0.00   5815.36

     exc-cor stress (kbar)  -4060.84     -0.00      0.00
                               -0.00  -4060.84     -0.00
                                0.00     -0.00  -4060.84

     corecor stress (kbar)  -1580.90      0.00      0.00
                                0.00  -1580.90      0.00
                                0.00      0.00  -1580.90

     ewald   stress (kbar) -27562.54     -0.00      0.00
                               -0.00 -27562.54      0.00
                                0.00      0.00 -27562.54

     hubbard stress (kbar)      0.00      0.00      0.00
                                0.00      0.00      0.00
                                0.00      0.00      0.00

     london  stress (kbar)      0.00      0.00      0.00
                                0.00      0.00      0.00
                                0.00      0.00      0.00

     DFT-D3  stress (kbar)      0.00      0.00      0.00
                                0.00      0.00      0.00
                                0.00      0.00      0.00

     XDM     stress (kbar)      0.00      0.00      0.00
                                0.00      0.00      0.00
                                0.00      0.00      0.00

     dft-nl  stress (kbar)      0.00      0.00      0.00
                                0.00      0.00      0.00
                                0.00      0.00      0.00

     TS-vdW  stress (kbar)      0.00      0.00      0.00
                                0.00      0.00      0.00
                                0.00      0.00      0.00



     BFGS Geometry Optimization

     number of scf cycles    =   1
     number of bfgs steps    =   0

     enthalpy new            =    -106.7472710342 Ry

     new trust radius        =       0.0027781765 bohr
     new conv_thr            =       0.0000010000 Ry

     new unit-cell volume =    157.30119 a.u.^3 (    23.30963 Ang^3 )
     density =      3.99486 g/cm^3

CELL_PARAMETERS (alat=  8.55951452)
  -0.500554697   0.000000000   0.500554697
  -0.000000000   0.500554697   0.500554697
  -0.500554697   0.500554697   0.000000000

ATOMIC_POSITIONS (crystal)
Ca       0.000000000   0.000000000   0.000000000
O        0.500000000   0.500000000   0.500000000



     Writing output data file CaO.save/
     NEW-OLD atomic charge density approx. for the potential

     Check: negative core charge=   -0.000004

     negative rho (up, down):  1.679E-04 0.000E+00
     extrapolated charge   16.05311, renormalised to   16.00000

     total cpu time spent up to now is        4.7 secs

     Self-consistent Calculation

     iteration #  1     ecut=    35.00 Ry     beta= 0.40
     Davidson diagonalization with overlap
     ethr =  1.00E-06,  avg # of iterations =  2.8

     negative rho (up, down):  1.678E-04 0.000E+00

     total cpu time spent up to now is        4.8 secs

     total energy              =    -107.06776754 Ry
     Harris-Foulkes estimate   =    -107.02188718 Ry
     estimated scf accuracy    <       0.00024162 Ry

     iteration #  2     ecut=    35.00 Ry     beta= 0.40
     Davidson diagonalization with overlap
     ethr =  1.51E-06,  avg # of iterations =  3.1

     negative rho (up, down):  1.678E-04 0.000E+00

     total cpu time spent up to now is        5.0 secs

     total energy              =    -107.06807955 Ry
     Harris-Foulkes estimate   =    -107.06820308 Ry
     estimated scf accuracy    <       0.00049667 Ry

     iteration #  3     ecut=    35.00 Ry     beta= 0.40
     Davidson diagonalization with overlap
     ethr =  1.51E-06,  avg # of iterations =  2.0

     negative rho (up, down):  1.676E-04 0.000E+00

     total cpu time spent up to now is        5.1 secs

     total energy              =    -107.06807643 Ry
     Harris-Foulkes estimate   =    -107.06810406 Ry
     estimated scf accuracy    <       0.00011677 Ry

     iteration #  4     ecut=    35.00 Ry     beta= 0.40
     Davidson diagonalization with overlap
     ethr =  7.30E-07,  avg # of iterations =  1.5

     negative rho (up, down):  1.674E-04 0.000E+00

     total cpu time spent up to now is        5.2 secs

     total energy              =    -107.06807664 Ry
     Harris-Foulkes estimate   =    -107.06808410 Ry
     estimated scf accuracy    <       0.00002917 Ry

     iteration #  5     ecut=    35.00 Ry     beta= 0.40
     Davidson diagonalization with overlap
     ethr =  1.82E-07,  avg # of iterations =  2.5

     negative rho (up, down):  1.673E-04 0.000E+00

     total cpu time spent up to now is        5.4 secs

     total energy              =    -107.06807762 Ry
     Harris-Foulkes estimate   =    -107.06807963 Ry
     estimated scf accuracy    <       0.00000527 Ry

     iteration #  6     ecut=    35.00 Ry     beta= 0.40
     Davidson diagonalization with overlap
     ethr =  3.29E-08,  avg # of iterations =  2.0

     negative rho (up, down):  1.674E-04 0.000E+00

     total cpu time spent up to now is        5.5 secs

     End of self-consistent calculation

          k = 0.0000 0.0000 0.0000 (   537 PWs)   bands (ev):

   -27.0471  -7.6253  -7.6253  -7.6253  -5.8973   9.9649   9.9649   9.9649
    16.2806  16.5782  16.5782  16.5782

     occupation numbers 
     1.0000   1.0000   1.0000   1.0000   1.0000   1.0000   1.0000   1.0000
     0.0000   0.0000   0.0000   0.0000

          k =-0.2497 0.2497-0.2497 (   549 PWs)   bands (ev):

   -26.9380  -8.9347  -7.6657  -7.6657  -4.6083   8.2191   9.0749   9.0749
    16.7221  17.7692  17.7692  18.5260

     occupation numbers 
     1.0000   1.0000   1.0000   1.0000   1.0000   1.0000   1.0000   1.0000
     0.0000   0.0000   0.0000   0.0000

          k = 0.4994-0.4994 0.4994 (   568 PWs)   bands (ev):

   -26.8257  -9.7346  -7.7051  -7.7051  -3.8167   6.8982   8.3707   8.3707
    17.8662  19.2878  19.2878  19.8761

     occupation numbers 
     1.0000   1.0000   1.0000   1.0000   1.0000   1.0000   1.0000   1.0000
     0.0000   0.0000   0.0000   0.0000

          k = 0.0000 0.4994 0.0000 (   560 PWs)   bands (ev):

   -26.9042  -8.7081  -7.8274  -7.8274  -4.9017   7.9998   9.6586   9.6586
    14.7304  18.0584  18.8956  18.8958

     occupation numbers 
     1.0000   1.0000   1.0000   1.0000   1.0000   1.0000   1.0000   1.0000
     0.0000   0.0000   0.0000   0.0000

          k = 0.7492-0.2497 0.7492 (   550 PWs)   bands (ev):

   -26.7944  -9.1602  -8.0873  -7.8693  -4.6359   8.0270   8.7341   8.9913
    15.6089  18.8813  19.9056  20.2159

     occupation numbers 
     1.0000   1.0000   1.0000   1.0000   1.0000   1.0000   1.0000   1.0000
     0.0000   0.0000   0.0000   0.0000

          k = 0.4994 0.0000 0.4994 (   548 PWs)   bands (ev):

   -26.8292  -9.2425  -8.1021  -7.7091  -4.2861   7.5493   8.5099   9.0874
    17.0399  18.2450  18.5565  19.5380

     occupation numbers 
     1.0000   1.0000   1.0000   1.0000   1.0000   1.0000   1.0000   1.0000
     0.0000   0.0000   0.0000   0.0000

          k = 0.0000-0.9989 0.0000 (   524 PWs)   bands (ev):

   -26.7625  -8.6939  -8.0268  -8.0268  -5.7221   8.8263   9.6595   9.6595
    13.4815  19.4030  19.8634  20.7115

     occupation numbers 
     1.0000   1.0000   1.0000   1.0000   1.0000   1.0000   1.0000   1.0000
     0.0000   0.0000   0.0000   0.0000

          k =-0.4994-0.9989 0.0000 (   524 PWs)   bands (ev):

   -26.7595  -8.5595  -8.3684  -8.3684  -4.8409   8.3781   8.9560   8.9560
    16.7988  16.7988  19.6367  20.7193

     occupation numbers 
     1.0000   1.0000   1.0000   1.0000   1.0000   1.0000   1.0000   1.0000
     0.0000   0.0000   0.0000   0.0000

     the Fermi energy is    11.9331 ev

!    total energy              =    -107.06807840 Ry
     Harris-Foulkes estimate   =    -107.06807845 Ry
     estimated scf accuracy    <       0.00000009 Ry

     The total energy is the sum of the following terms:

     one-electron contribution =     -18.38706787 Ry
     hartree contribution      =      18.63545155 Ry
     xc contribution           =     -19.28888912 Ry
     ewald contribution        =     -88.02757297 Ry
     smearing contrib. (-TS)   =      -0.00000000 Ry

     convergence has been achieved in   6 iterations

     negative rho (up, down):  1.674E-04 0.000E+00

     Forces acting on atoms (cartesian axes, Ry/au):

     atom    1 type  1   force =     0.00000000    0.00000000    0.00000000
     atom    2 type  2   force =     0.00000000    0.00000000    0.00000000
     The non-local contrib.  to forces
     atom    1 type  1   force =     0.00000000    0.00000000    0.00000000
     atom    2 type  2   force =     0.00000000    0.00000000    0.00000000
     The ionic contribution  to forces
     atom    1 type  1   force =     0.00000000   -0.00000000   -0.00000000
     atom    2 type  2   force =    -0.00000000    0.00000000    0.00000000
     The local contribution  to forces
     atom    1 type  1   force =    -0.00000000   -0.00000000    0.00000000
     atom    2 type  2   force =    -0.00000000    0.00000000    0.00000000
     The core correction contribution to forces
     atom    1 type  1   force =    -0.00000000    0.00000000   -0.00000000
     atom    2 type  2   force =     0.00000000    0.00000000    0.00000000
     The Hubbard contrib.    to forces
     atom    1 type  1   force =     0.00000000    0.00000000    0.00000000
     atom    2 type  2   force =     0.00000000    0.00000000    0.00000000
     The SCF correction term to forces
     atom    1 type  1   force =    -0.00000000    0.00000000    0.00000000
     atom    2 type  2   force =     0.00000000   -0.00000000    0.00000000

     Total force =     0.000000     Total SCF correction =     0.000000


     Computing stress (Cartesian axis) and pressure


     negative rho (up, down):  1.674E-04 0.000E+00
          total   stress  (Ry/bohr**3)                   (kbar)     P=  300.86
   0.00204518  -0.00000000   0.00000000        300.86     -0.00      0.00
  -0.00000000   0.00204518  -0.00000000         -0.00    300.86     -0.00
   0.00000000   0.00000000   0.00204518          0.00      0.00    300.86

     kinetic stress (kbar)  16861.42     -0.00      0.00
                               -0.00  16861.42     -0.00
                                0.00     -0.00  16861.42

     local   stress (kbar)  -3517.35      0.00      0.00
                                0.00  -3517.35      0.00
                                0.00      0.00  -3517.35

     nonloc. stress (kbar)  14210.20      0.00     -0.00
                                0.00  14210.20     -0.00
                               -0.00     -0.00  14210.20

     hartree stress (kbar)   5809.17     -0.00      0.00
                               -0.00   5809.17     -0.00
                                0.00     -0.00   5809.17

     exc-cor stress (kbar)  -4046.41      0.00     -0.00
                                0.00  -4046.41      0.00
                               -0.00      0.00  -4046.41

     corecor stress (kbar)  -1575.60      0.00      0.00
                                0.00  -1575.60      0.00
                                0.00      0.00  -1575.60

     ewald   stress (kbar) -27440.56     -0.00     -0.00
                               -0.00 -27440.56     -0.00
                               -0.00     -0.00 -27440.56

     hubbard stress (kbar)      0.00      0.00      0.00
                                0.00      0.00      0.00
                                0.00      0.00      0.00

     london  stress (kbar)      0.00      0.00      0.00
                                0.00      0.00      0.00
                                0.00      0.00      0.00

     DFT-D3  stress (kbar)      0.00      0.00      0.00
                                0.00      0.00      0.00
                                0.00      0.00      0.00

     XDM     stress (kbar)      0.00      0.00      0.00
                                0.00      0.00      0.00
                                0.00      0.00      0.00

     dft-nl  stress (kbar)      0.00      0.00      0.00
                                0.00      0.00      0.00
                                0.00      0.00      0.00

     TS-vdW  stress (kbar)      0.00      0.00      0.00
                                0.00      0.00      0.00
                                0.00      0.00      0.00



     number of scf cycles    =   2
     number of bfgs steps    =   1

     enthalpy old            =    -106.7472710342 Ry
     enthalpy new            =    -106.7472848120 Ry

     CASE: enthalpy_new < enthalpy_old

     new trust radius        =       0.0004209939 bohr
     new conv_thr            =       0.0000000100 Ry

     new unit-cell volume =    157.38041 a.u.^3 (    23.32137 Ang^3 )
     density =      3.99285 g/cm^3

CELL_PARAMETERS (alat=  8.55951452)
  -0.500638707   0.000000000   0.500638707
  -0.000000000   0.500638707   0.500638707
  -0.500638707   0.500638707   0.000000000

ATOMIC_POSITIONS (crystal)
Ca       0.000000000   0.000000000   0.000000000
O        0.500000000   0.500000000   0.500000000



     Writing output data file CaO.save/
     NEW-OLD atomic charge density approx. for the potential

     Check: negative core charge=   -0.000004

     negative rho (up, down):  1.675E-04 0.000E+00
     extrapolated charge   16.00805, renormalised to   16.00000

     total cpu time spent up to now is        6.2 secs

     Self-consistent Calculation

     iteration #  1     ecut=    35.00 Ry     beta= 0.40
     Davidson diagonalization with overlap
     ethr =  1.00E-06,  avg # of iterations =  2.0

     Threshold (ethr) on eigenvalues was too large:
     Diagonalizing with lowered threshold

     Davidson diagonalization with overlap
     ethr =  6.37E-08,  avg # of iterations =  1.0

     negative rho (up, down):  1.675E-04 0.000E+00

     total cpu time spent up to now is        6.4 secs

     total energy              =    -107.06823009 Ry
     Harris-Foulkes estimate   =    -107.06123099 Ry
     estimated scf accuracy    <       0.00001022 Ry

     iteration #  2     ecut=    35.00 Ry     beta= 0.40
     Davidson diagonalization with overlap
     ethr =  6.38E-08,  avg # of iterations =  3.1

     negative rho (up, down):  1.675E-04 0.000E+00

     total cpu time spent up to now is        6.6 secs

     total energy              =    -107.06823940 Ry
     Harris-Foulkes estimate   =    -107.06824336 Ry
     estimated scf accuracy    <       0.00001432 Ry

     iteration #  3     ecut=    35.00 Ry     beta= 0.40
     Davidson diagonalization with overlap
     ethr =  6.38E-08,  avg # of iterations =  1.8

     negative rho (up, down):  1.675E-04 0.000E+00

     total cpu time spent up to now is        6.7 secs

     total energy              =    -107.06823965 Ry
     Harris-Foulkes estimate   =    -107.06824025 Ry
     estimated scf accuracy    <       0.00000275 Ry

     iteration #  4     ecut=    35.00 Ry     beta= 0.40
     Davidson diagonalization with overlap
     ethr =  1.72E-08,  avg # of iterations =  2.0

     negative rho (up, down):  1.675E-04 0.000E+00

     total cpu time spent up to now is        6.8 secs

     total energy              =    -107.06823990 Ry
     Harris-Foulkes estimate   =    -107.06823993 Ry
     estimated scf accuracy    <       0.00000059 Ry

     iteration #  5     ecut=    35.00 Ry     beta= 0.40
     Davidson diagonalization with overlap
     ethr =  3.69E-09,  avg # of iterations =  1.5

     negative rho (up, down):  1.675E-04 0.000E+00

     total cpu time spent up to now is        7.0 secs

     total energy              =    -107.06823988 Ry
     Harris-Foulkes estimate   =    -107.06823992 Ry
     estimated scf accuracy    <       0.00000046 Ry

     iteration #  6     ecut=    35.00 Ry     beta= 0.40
     Davidson diagonalization with overlap
     ethr =  2.88E-09,  avg # of iterations =  1.0

     negative rho (up, down):  1.675E-04 0.000E+00

     total cpu time spent up to now is        7.1 secs

     total energy              =    -107.06823973 Ry
     Harris-Foulkes estimate   =    -107.06823989 Ry
     estimated scf accuracy    <       0.00000033 Ry

     iteration #  7     ecut=    35.00 Ry     beta= 0.40
     Davidson diagonalization with overlap
     ethr =  2.06E-09,  avg # of iterations =  2.3

     negative rho (up, down):  1.675E-04 0.000E+00

     total cpu time spent up to now is        7.2 secs

     End of self-consistent calculation

          k = 0.0000 0.0000 0.0000 (   537 PWs)   bands (ev):

   -27.0554  -7.6343  -7.6343  -7.6343  -5.9018   9.9595   9.9595   9.9595
    16.2696  16.5706  16.5706  16.5706

     occupation numbers 
     1.0000   1.0000   1.0000   1.0000   1.0000   1.0000   1.0000   1.0000
     0.0000   0.0000   0.0000   0.0000

          k =-0.2497 0.2497-0.2497 (   549 PWs)   bands (ev):

   -26.9465  -8.9409  -7.6747  -7.6747  -4.6153   8.2141   9.0701   9.0701
    16.7144  17.7610  17.7610  18.5148

     occupation numbers 
     1.0000   1.0000   1.0000   1.0000   1.0000   1.0000   1.0000   1.0000
     0.0000   0.0000   0.0000   0.0000

          k = 0.4994-0.4994 0.4994 (   568 PWs)   bands (ev):

   -26.8345  -9.7397  -7.7141  -7.7141  -3.8244   6.8937   8.3664   8.3664
    17.8577  19.2785  19.2785  19.8657

     occupation numbers 
     1.0000   1.0000   1.0000   1.0000   1.0000   1.0000   1.0000   1.0000
     0.0000   0.0000   0.0000   0.0000

          k = 0.0000 0.4994 0.0000 (   560 PWs)   bands (ev):

   -26.9128  -8.7147  -7.8361  -7.8361  -4.9082   7.9950   9.6532   9.6532
    14.7240  18.0477  18.8866  18.8867

     occupation numbers 
     1.0000   1.0000   1.0000   1.0000   1.0000   1.0000   1.0000   1.0000
     0.0000   0.0000   0.0000   0.0000

          k = 0.7490-0.2497 0.7490 (   550 PWs)   bands (ev):

   -26.8033  -9.1662  -8.0956  -7.8779  -4.6423   8.0217   8.7289   8.9862
    15.6019  18.8721  19.8958  20.2051

     occupation numbers 
     1.0000   1.0000   1.0000   1.0000   1.0000   1.0000   1.0000   1.0000
     0.0000   0.0000   0.0000   0.0000

          k = 0.4994-0.0000 0.4994 (   548 PWs)   bands (ev):

   -26.8380  -9.2483  -8.1103  -7.7180  -4.2932   7.5446   8.5054   9.0818
    17.0321  18.2359  18.5478  19.5279

     occupation numbers 
     1.0000   1.0000   1.0000   1.0000   1.0000   1.0000   1.0000   1.0000
     0.0000   0.0000   0.0000   0.0000

          k = 0.0000-0.9987 0.0000 (   524 PWs)   bands (ev):

   -26.7714  -8.7012  -8.0352  -8.0352  -5.7261   8.8199   9.6537   9.6537
    13.4757  19.3923  19.8537  20.7012

     occupation numbers 
     1.0000   1.0000   1.0000   1.0000   1.0000   1.0000   1.0000   1.0000
     0.0000   0.0000   0.0000   0.0000

          k =-0.4994-0.9987-0.0000 (   524 PWs)   bands (ev):

   -26.7684  -8.5663  -8.3762  -8.3762  -4.8472   8.3735   8.9500   8.9500
    16.7912  16.7912  19.6263  20.7090

     occupation numbers 
     1.0000   1.0000   1.0000   1.0000   1.0000   1.0000   1.0000   1.0000
     0.0000   0.0000   0.0000   0.0000

     the Fermi energy is    11.9232 ev

!    total energy              =    -107.06823980 Ry
     Harris-Foulkes estimate   =    -107.06823980 Ry
     estimated scf accuracy    <          4.5E-09 Ry

     The total energy is the sum of the following terms:

     one-electron contribution =     -18.40791438 Ry
     hartree contribution      =      18.64044643 Ry
     xc contribution           =     -19.28797042 Ry
     ewald contribution        =     -88.01280143 Ry
     smearing contrib. (-TS)   =      -0.00000000 Ry

     convergence has been achieved in   7 iterations

     negative rho (up, down):  1.675E-04 0.000E+00

     Forces acting on atoms (cartesian axes, Ry/au):

     atom    1 type  1   force =     0.00000000    0.00000000    0.00000000
     atom    2 type  2   force =     0.00000000    0.00000000    0.00000000
     The non-local contrib.  to forces
     atom    1 type  1   force =     0.00000000    0.00000000    0.00000000
     atom    2 type  2   force =     0.00000000    0.00000000    0.00000000
     The ionic contribution  to forces
     atom    1 type  1   force =     0.00000000   -0.00000000   -0.00000000
     atom    2 type  2   force =    -0.00000000    0.00000000    0.00000000
     The local contribution  to forces
     atom    1 type  1   force =     0.00000000    0.00000000    0.00000000
     atom    2 type  2   force =     0.00000000   -0.00000000   -0.00000000
     The core correction contribution to forces
     atom    1 type  1   force =    -0.00000000    0.00000000   -0.00000000
     atom    2 type  2   force =     0.00000000    0.00000000    0.00000000
     The Hubbard contrib.    to forces
     atom    1 type  1   force =     0.00000000    0.00000000    0.00000000
     atom    2 type  2   force =     0.00000000    0.00000000    0.00000000
     The SCF correction term to forces
     atom    1 type  1   force =     0.00000000    0.00000000    0.00000000
     atom    2 type  2   force =    -0.00000000    0.00000000    0.00000000

     Total force =     0.000000     Total SCF correction =     0.000000


     Computing stress (Cartesian axis) and pressure


     negative rho (up, down):  1.675E-04 0.000E+00
          total   stress  (Ry/bohr**3)                   (kbar)     P=  298.72
   0.00203064  -0.00000000  -0.00000000        298.72     -0.00     -0.00
  -0.00000000   0.00203064   0.00000000         -0.00    298.72      0.00
  -0.00000000   0.00000000   0.00203064         -0.00      0.00    298.72

     kinetic stress (kbar)  16851.44     -0.00      0.00
                               -0.00  16851.44     -0.00
                                0.00     -0.00  16851.44

     local   stress (kbar)  -3521.53      0.00     -0.00
                                0.00  -3521.53      0.00
                               -0.00      0.00  -3521.53

     nonloc. stress (kbar)  14202.07     -0.00      0.00
                               -0.00  14202.07      0.00
                                0.00      0.00  14202.07

     hartree stress (kbar)   5807.80      0.00      0.00
                                0.00   5807.80      0.00
                                0.00      0.00   5807.80

     exc-cor stress (kbar)  -4044.11      0.00     -0.00
                                0.00  -4044.11      0.00
                               -0.00      0.00  -4044.11

     corecor stress (kbar)  -1574.81     -0.00     -0.00
                               -0.00  -1574.81      0.00
                               -0.00      0.00  -1574.81

     ewald   stress (kbar) -27422.15      0.00     -0.00
                                0.00 -27422.15      0.00
                               -0.00      0.00 -27422.15

     hubbard stress (kbar)      0.00      0.00      0.00
                                0.00      0.00      0.00
                                0.00      0.00      0.00

     london  stress (kbar)      0.00      0.00      0.00
                                0.00      0.00      0.00
                                0.00      0.00      0.00

     DFT-D3  stress (kbar)      0.00      0.00      0.00
                                0.00      0.00      0.00
                                0.00      0.00      0.00

     XDM     stress (kbar)      0.00      0.00      0.00
                                0.00      0.00      0.00
                                0.00      0.00      0.00

     dft-nl  stress (kbar)      0.00      0.00      0.00
                                0.00      0.00      0.00
                                0.00      0.00      0.00

     TS-vdW  stress (kbar)      0.00      0.00      0.00
                                0.00      0.00      0.00
                                0.00      0.00      0.00



     number of scf cycles    =   3
     number of bfgs steps    =   2

     enthalpy old            =    -106.7472848120 Ry
     enthalpy new            =    -106.7472846626 Ry

     CASE: enthalpy_new > enthalpy_old

     new trust radius        =       0.0001590094 bohr
     new conv_thr            =       0.0000000100 Ry

     new unit-cell volume =    157.33111 a.u.^3 (    23.31406 Ang^3 )
     density =      3.99410 g/cm^3

CELL_PARAMETERS (alat=  8.55951452)
  -0.500586425   0.000000000   0.500586425
  -0.000000000   0.500586425   0.500586425
  -0.500586425   0.500586425   0.000000000

ATOMIC_POSITIONS (crystal)
Ca       0.000000000   0.000000000   0.000000000
O        0.500000000   0.500000000   0.500000000



     Writing output data file CaO.save/
     NEW-OLD atomic charge density approx. for the potential

     Check: negative core charge=   -0.000004

     negative rho (up, down):  1.674E-04 0.000E+00
     extrapolated charge   15.99499, renormalised to   16.00000

     total cpu time spent up to now is        7.9 secs

     Self-consistent Calculation

     iteration #  1     ecut=    35.00 Ry     beta= 0.40
     Davidson diagonalization with overlap
     ethr =  1.00E-06,  avg # of iterations =  2.0

     Threshold (ethr) on eigenvalues was too large:
     Diagonalizing with lowered threshold

     Davidson diagonalization with overlap
     ethr =  1.89E-08,  avg # of iterations =  1.0

     negative rho (up, down):  1.674E-04 0.000E+00

     total cpu time spent up to now is        8.2 secs

     total energy              =    -107.06813620 Ry
     Harris-Foulkes estimate   =    -107.07250130 Ry
     estimated scf accuracy    <       0.00000301 Ry

     iteration #  2     ecut=    35.00 Ry     beta= 0.40
     Davidson diagonalization with overlap
     ethr =  1.88E-08,  avg # of iterations =  3.4

     negative rho (up, down):  1.674E-04 0.000E+00

     total cpu time spent up to now is        8.4 secs

     total energy              =    -107.06813938 Ry
     Harris-Foulkes estimate   =    -107.06814071 Ry
     estimated scf accuracy    <       0.00000501 Ry

     iteration #  3     ecut=    35.00 Ry     beta= 0.40
     Davidson diagonalization with overlap
     ethr =  1.88E-08,  avg # of iterations =  2.0

     negative rho (up, down):  1.674E-04 0.000E+00

     total cpu time spent up to now is        8.5 secs

     total energy              =    -107.06813942 Ry
     Harris-Foulkes estimate   =    -107.06813966 Ry
     estimated scf accuracy    <       0.00000104 Ry

     iteration #  4     ecut=    35.00 Ry     beta= 0.40
     Davidson diagonalization with overlap
     ethr =  6.49E-09,  avg # of iterations =  1.8

     negative rho (up, down):  1.674E-04 0.000E+00

     total cpu time spent up to now is        8.6 secs

     total energy              =    -107.06813947 Ry
     Harris-Foulkes estimate   =    -107.06813951 Ry
     estimated scf accuracy    <       0.00000024 Ry

     iteration #  5     ecut=    35.00 Ry     beta= 0.40
     Davidson diagonalization with overlap
     ethr =  1.50E-09,  avg # of iterations =  1.8

     negative rho (up, down):  1.674E-04 0.000E+00

     total cpu time spent up to now is        8.7 secs

     total energy              =    -107.06813945 Ry
     Harris-Foulkes estimate   =    -107.06813949 Ry
     estimated scf accuracy    <       0.00000010 Ry

     iteration #  6     ecut=    35.00 Ry     beta= 0.40
     Davidson diagonalization with overlap
     ethr =  5.96E-10,  avg # of iterations =  2.1

     negative rho (up, down):  1.674E-04 0.000E+00

     total cpu time spent up to now is        8.8 secs

     End of self-consistent calculation

          k = 0.0000 0.0000 0.0000 (   537 PWs)   bands (ev):

   -27.0504  -7.6289  -7.6289  -7.6289  -5.8982   9.9637   9.9637   9.9637
    16.2769  16.5753  16.5753  16.5753

     occupation numbers 
     1.0000   1.0000   1.0000   1.0000   1.0000   1.0000   1.0000   1.0000
     0.0000   0.0000   0.0000   0.0000

          k =-0.2497 0.2497-0.2497 (   549 PWs)   bands (ev):

   -26.9414  -8.9370  -7.6693  -7.6693  -4.6103   8.2179   9.0738   9.0738
    16.7194  17.7661  17.7661  18.5223

     occupation numbers 
     1.0000   1.0000   1.0000   1.0000   1.0000   1.0000   1.0000   1.0000
     0.0000   0.0000   0.0000   0.0000

          k = 0.4994-0.4994 0.4994 (   568 PWs)   bands (ev):

   -26.8292  -9.7364  -7.7087  -7.7087  -3.8190   6.8971   8.3697   8.3697
    17.8633  19.2843  19.2843  19.8726

     occupation numbers 
     1.0000   1.0000   1.0000   1.0000   1.0000   1.0000   1.0000   1.0000
     0.0000   0.0000   0.0000   0.0000

          k = 0.0000 0.4994 0.0000 (   560 PWs)   bands (ev):

   -26.9076  -8.7106  -7.8309  -7.8309  -4.9035   7.9986   9.6573   9.6573
    14.7281  18.0547  18.8922  18.8923

     occupation numbers 
     1.0000   1.0000   1.0000   1.0000   1.0000   1.0000   1.0000   1.0000
     0.0000   0.0000   0.0000   0.0000

          k = 0.7491-0.2497 0.7491 (   550 PWs)   bands (ev):

   -26.7979  -9.1624  -8.0906  -7.8727  -4.6377   8.0256   8.7328   8.9901
    15.6065  18.8781  19.9019  20.2119

     occupation numbers 
     1.0000   1.0000   1.0000   1.0000   1.0000   1.0000   1.0000   1.0000
     0.0000   0.0000   0.0000   0.0000

          k = 0.4994 0.0000 0.4994 (   548 PWs)   bands (ev):

   -26.8327  -9.2446  -8.1053  -7.7126  -4.2882   7.5481   8.5088   9.0859
    17.0373  18.2419  18.5532  19.5342

     occupation numbers 
     1.0000   1.0000   1.0000   1.0000   1.0000   1.0000   1.0000   1.0000
     0.0000   0.0000   0.0000   0.0000

          k = 0.0000-0.9988 0.0000 (   524 PWs)   bands (ev):

   -26.7660  -8.6968  -8.0301  -8.0301  -5.7228   8.8245   9.6580   9.6580
    13.4795  19.3991  19.8596  20.7074

     occupation numbers 
     1.0000   1.0000   1.0000   1.0000   1.0000   1.0000   1.0000   1.0000
     0.0000   0.0000   0.0000   0.0000

          k =-0.4994-0.9988-0.0000 (   524 PWs)   bands (ev):

   -26.7630  -8.5621  -8.3715  -8.3715  -4.8427   8.3770   8.9544   8.9544
    16.7962  16.7962  19.6328  20.7152

     occupation numbers 
     1.0000   1.0000   1.0000   1.0000   1.0000   1.0000   1.0000   1.0000
     0.0000   0.0000   0.0000   0.0000

     the Fermi energy is    11.9292 ev

!    total energy              =    -107.06813946 Ry
     Harris-Foulkes estimate   =    -107.06813946 Ry
     estimated scf accuracy    <          2.6E-09 Ry

     The total energy is the sum of the following terms:

     one-electron contribution =     -18.39456236 Ry
     hartree contribution      =      18.63681423 Ry
     xc contribution           =     -19.28839768 Ry
     ewald contribution        =     -88.02199365 Ry
     smearing contrib. (-TS)   =      -0.00000000 Ry

     convergence has been achieved in   6 iterations

     negative rho (up, down):  1.674E-04 0.000E+00

     Forces acting on atoms (cartesian axes, Ry/au):

     atom    1 type  1   force =     0.00000000    0.00000000    0.00000000
     atom    2 type  2   force =     0.00000000    0.00000000    0.00000000
     The non-local contrib.  to forces
     atom    1 type  1   force =     0.00000000    0.00000000    0.00000000
     atom    2 type  2   force =     0.00000000    0.00000000    0.00000000
     The ionic contribution  to forces
     atom    1 type  1   force =     0.00000000   -0.00000000   -0.00000000
     atom    2 type  2   force =    -0.00000000    0.00000000    0.00000000
     The local contribution  to forces
     atom    1 type  1   force =     0.00000000   -0.00000000   -0.00000000
     atom    2 type  2   force =     0.00000000   -0.00000000   -0.00000000
     The core correction contribution to forces
     atom    1 type  1   force =    -0.00000000   -0.00000000    0.00000000
     atom    2 type  2   force =     0.00000000    0.00000000    0.00000000
     The Hubbard contrib.    to forces
     atom    1 type  1   force =     0.00000000    0.00000000    0.00000000
     atom    2 type  2   force =     0.00000000    0.00000000    0.00000000
     The SCF correction term to forces
     atom    1 type  1   force =    -0.00000000    0.00000000    0.00000000
     atom    2 type  2   force =    -0.00000000    0.00000000    0.00000000

     Total force =     0.000000     Total SCF correction =     0.000000


     Computing stress (Cartesian axis) and pressure


     negative rho (up, down):  1.674E-04 0.000E+00
          total   stress  (Ry/bohr**3)                   (kbar)     P=  299.69
   0.00203723   0.00000000   0.00000000        299.69      0.00      0.00
   0.00000000   0.00203723  -0.00000000          0.00    299.69     -0.00
   0.00000000  -0.00000000   0.00203723          0.00     -0.00    299.69

     kinetic stress (kbar)  16857.34     -0.00     -0.00
                               -0.00  16857.34      0.00
                               -0.00      0.00  16857.34

     local   stress (kbar)  -3518.68      0.00     -0.00
                                0.00  -3518.68      0.00
                               -0.00      0.00  -3518.68

     nonloc. stress (kbar)  14206.94     -0.00      0.00
                               -0.00  14206.94     -0.00
                                0.00     -0.00  14206.94

     hartree stress (kbar)   5808.49      0.00      0.00
                                0.00   5808.49     -0.00
                                0.00     -0.00   5808.49

     exc-cor stress (kbar)  -4045.49     -0.00      0.00
                               -0.00  -4045.49     -0.00
                                0.00     -0.00  -4045.49

     corecor stress (kbar)  -1575.30      0.00      0.00
                                0.00  -1575.30      0.00
                                0.00      0.00  -1575.30

     ewald   stress (kbar) -27433.61      0.00      0.00
                                0.00 -27433.61      0.00
                                0.00      0.00 -27433.61

     hubbard stress (kbar)      0.00      0.00      0.00
                                0.00      0.00      0.00
                                0.00      0.00      0.00

     london  stress (kbar)      0.00      0.00      0.00
                                0.00      0.00      0.00
                                0.00      0.00      0.00

     DFT-D3  stress (kbar)      0.00      0.00      0.00
                                0.00      0.00      0.00
                                0.00      0.00      0.00

     XDM     stress (kbar)      0.00      0.00      0.00
                                0.00      0.00      0.00
                                0.00      0.00      0.00

     dft-nl  stress (kbar)      0.00      0.00      0.00
                                0.00      0.00      0.00
                                0.00      0.00      0.00

     TS-vdW  stress (kbar)      0.00      0.00      0.00
                                0.00      0.00      0.00
                                0.00      0.00      0.00



     bfgs converged in   4 scf cycles and   2 bfgs steps
     (criteria: energy <  1.0E-04 Ry, force <  1.0E-03Ry/Bohr, cell <  5.0E-01kbar)

     End of BFGS Geometry Optimization

     Final enthalpy =    -106.7472848680 Ry
Begin final coordinates
     new unit-cell volume =    157.33111 a.u.^3 (    23.31406 Ang^3 )
     density =      3.99410 g/cm^3

CELL_PARAMETERS (alat=  8.55951452)
  -0.500586425   0.000000000   0.500586425
  -0.000000000   0.500586425   0.500586425
  -0.500586425   0.500586425   0.000000000

ATOMIC_POSITIONS (crystal)
Ca       0.000000000   0.000000000   0.000000000
O        0.500000000   0.500000000   0.500000000
End final coordinates



     Writing output data file CaO.save/

     A final scf calculation at the relaxed structure.
     The G-vectors are recalculated for the final unit cell
     Results may differ from those at the preceding step.
 
     Parallelization info
     --------------------
     sticks:   dense  smooth     PW     G-vecs:    dense   smooth      PW
     Min         100      45     15                 1855      558     108
     Max         101      46     16                 1856      560     110
     Sum         805     361    121                14841     4477     869
 


     bravais-lattice index     =            2
     lattice parameter (alat)  =       8.5595  a.u.
     unit-cell volume          =     157.3311 (a.u.)^3
     number of atoms/cell      =            2
     number of atomic types    =            2
     number of electrons       =        16.00
     number of Kohn-Sham states=           12
     kinetic-energy cutoff     =      35.0000  Ry
     charge density cutoff     =     315.0000  Ry
     convergence threshold     =      1.0E-08
     mixing beta               =       0.4000
     number of iterations used =            8  plain     mixing
     Exchange-correlation      = SLA PW PBE PBE ( 1  4  3  4 0 0)

     celldm(1)=   8.559515  celldm(2)=   0.000000  celldm(3)=   0.000000
     celldm(4)=   0.000000  celldm(5)=   0.000000  celldm(6)=   0.000000

     crystal axes: (cart. coord. in units of alat)
               a(1) = (  -0.500586   0.000000   0.500586 )  
               a(2) = (  -0.000000   0.500586   0.500586 )  
               a(3) = (  -0.500586   0.500586   0.000000 )  

     reciprocal axes: (cart. coord. in units 2 pi/alat)
               b(1) = ( -0.998829 -0.998829  0.998829 )  
               b(2) = (  0.998829  0.998829  0.998829 )  
               b(3) = ( -0.998829  0.998829 -0.998829 )  


     PseudoPot. # 1 for Ca read from file:
     ../pseudo/Ca.pbe-nsp-van.UPF
     MD5 check sum: cdab9c70410076c6adf7f3c9fd3601e0
     Pseudo is Ultrasoft + core correction, Zval = 10.0
     Generated by new atomic code, or converted to UPF format
     Using radial grid of  845 points,  6 beta functions with: 
                l(1) =   0
                l(2) =   0
                l(3) =   1
                l(4) =   1
                l(5) =   2
                l(6) =   2
     Q(r) pseudized with  6 coefficients,  rinner =    1.200   1.200   1.200
                                                       1.200   1.200

     PseudoPot. # 2 for O  read from file:
     ../pseudo/O.pbe-van_ak.UPF
     MD5 check sum: 572909515f9aa9498032b6eb5528d5f9
     Pseudo is Ultrasoft, Zval =  6.0
     Generated by new atomic code, or converted to UPF format
     Using radial grid of  737 points,  4 beta functions with: 
                l(1) =   0
                l(2) =   0
                l(3) =   1
                l(4) =   1
     Q(r) pseudized with  8 coefficients,  rinner =    0.800   0.800   0.800


     atomic species   valence    mass     pseudopotential
        Ca            10.00    40.07800     Ca( 1.00)
        O              6.00    15.99940     O ( 1.00)

     48 Sym. Ops., with inversion, found


                                    s                        frac. trans.

      isym =  1     identity                                     

 cryst.   s( 1) = (     1          0          0      )
                  (     0          1          0      )
                  (     0          0          1      )

 cart.    s( 1) = (  1.0000000  0.0000000  0.0000000 )
                  (  0.0000000  1.0000000  0.0000000 )
                  (  0.0000000  0.0000000  1.0000000 )


      isym =  2     180 deg rotation - cart. axis [0,0,1]        

 cryst.   s( 2) = (     0          1         -1      )
                  (     1          0         -1      )
                  (     0          0         -1      )

 cart.    s( 2) = ( -1.0000000  0.0000000  0.0000000 )
                  (  0.0000000 -1.0000000  0.0000000 )
                  (  0.0000000  0.0000000  1.0000000 )


      isym =  3     180 deg rotation - cart. axis [0,1,0]        

 cryst.   s( 3) = (    -1          0          0      )
                  (    -1          0          1      )
                  (    -1          1          0      )

 cart.    s( 3) = ( -1.0000000  0.0000000  0.0000000 )
                  (  0.0000000  1.0000000  0.0000000 )
                  (  0.0000000  0.0000000 -1.0000000 )


      isym =  4     180 deg rotation - cart. axis [1,0,0]        

 cryst.   s( 4) = (     0         -1          1      )
                  (     0         -1          0      )
                  (     1         -1          0      )

 cart.    s( 4) = (  1.0000000  0.0000000  0.0000000 )
                  (  0.0000000 -1.0000000  0.0000000 )
                  (  0.0000000  0.0000000 -1.0000000 )


      isym =  5     180 deg rotation - cart. axis [1,1,0]        

 cryst.   s( 5) = (     0         -1          0      )
                  (    -1          0          0      )
                  (     0          0         -1      )

 cart.    s( 5) = (  0.0000000  1.0000000  0.0000000 )
                  (  1.0000000  0.0000000  0.0000000 )
                  (  0.0000000  0.0000000 -1.0000000 )


      isym =  6     180 deg rotation - cart. axis [1,-1,0]       

 cryst.   s( 6) = (    -1          0          1      )
                  (     0         -1          1      )
                  (     0          0          1      )

 cart.    s( 6) = (  0.0000000 -1.0000000  0.0000000 )
                  ( -1.0000000  0.0000000  0.0000000 )
                  (  0.0000000  0.0000000 -1.0000000 )


      isym =  7      90 deg rotation - cart. axis [0,0,-1]       

 cryst.   s( 7) = (     0          1          0      )
                  (     0          1         -1      )
                  (    -1          1          0      )

 cart.    s( 7) = (  0.0000000  1.0000000  0.0000000 )
                  ( -1.0000000  0.0000000  0.0000000 )
                  (  0.0000000  0.0000000  1.0000000 )


      isym =  8      90 deg rotation - cart. axis [0,0,1]        

 cryst.   s( 8) = (     1          0         -1      )
                  (     1          0          0      )
                  (     1         -1          0      )

 cart.    s( 8) = (  0.0000000 -1.0000000  0.0000000 )
                  (  1.0000000  0.0000000  0.0000000 )
                  (  0.0000000  0.0000000  1.0000000 )


      isym =  9     180 deg rotation - cart. axis [1,0,1]        

 cryst.   s( 9) = (    -1          0          0      )
                  (     0          0         -1      )
                  (     0         -1          0      )

 cart.    s( 9) = (  0.0000000  0.0000000  1.0000000 )
                  (  0.0000000 -1.0000000  0.0000000 )
                  (  1.0000000  0.0000000  0.0000000 )


      isym = 10     180 deg rotation - cart. axis [-1,0,1]       

 cryst.   s(10) = (     1          0          0      )
                  (     1         -1          0      )
                  (     1          0         -1      )

 cart.    s(10) = (  0.0000000  0.0000000 -1.0000000 )
                  (  0.0000000 -1.0000000  0.0000000 )
                  ( -1.0000000  0.0000000  0.0000000 )


      isym = 11      90 deg rotation - cart. axis [0,1,0]        

 cryst.   s(11) = (     0          1         -1      )
                  (    -1          1          0      )
[...]
                  (     0          1         -1      )
                  (     0          1          0      )

 cart.    s(48) = (  0.0000000  0.0000000  1.0000000 )
                  ( -1.0000000  0.0000000  0.0000000 )
                  (  0.0000000  1.0000000  0.0000000 )


     point group O_h (m-3m) 
     there are 10 classes
     the character table:

       E     8C3   3C2   6C4   6C2'  i     8S6   3s_h  6S4   6s_d 
A_1g   1.00  1.00  1.00  1.00  1.00  1.00  1.00  1.00  1.00  1.00
A_2g   1.00  1.00  1.00 -1.00 -1.00  1.00  1.00  1.00 -1.00 -1.00
E_g    2.00 -1.00  2.00  0.00  0.00  2.00 -1.00  2.00  0.00  0.00
T_1g   3.00  0.00 -1.00  1.00 -1.00  3.00  0.00 -1.00  1.00 -1.00
T_2g   3.00  0.00 -1.00 -1.00  1.00  3.00  0.00 -1.00 -1.00  1.00
A_1u   1.00  1.00  1.00  1.00  1.00 -1.00 -1.00 -1.00 -1.00 -1.00
A_2u   1.00  1.00  1.00 -1.00 -1.00 -1.00 -1.00 -1.00  1.00  1.00
E_u    2.00 -1.00  2.00  0.00  0.00 -2.00  1.00 -2.00  0.00  0.00
T_1u   3.00  0.00 -1.00  1.00 -1.00 -3.00  0.00  1.00 -1.00  1.00
T_2u   3.00  0.00 -1.00 -1.00  1.00 -3.00  0.00  1.00  1.00 -1.00

     the symmetry operations in each class and the name of the first element:

     E        1
          identity                                               
     8C3     17   19   20   18   24   21   22   23
          120 deg rotation - cart. axis [-1,-1,-1]               
     3C2      2    4    3
          180 deg rotation - cart. axis [0,0,1]                  
     6C4      7    8   15   16   12   11
           90 deg rotation - cart. axis [0,0,-1]                 
     6C2'     5    6   14   13   10    9
          180 deg rotation - cart. axis [1,1,0]                  
     i       25
          inversion                                              
     8S6     41   43   44   42   48   45   46   47
          inv. 120 deg rotation - cart. axis [-1,-1,-1]          
     3s_h    26   28   27
          inv. 180 deg rotation - cart. axis [0,0,1]             
     6S4     31   32   39   40   36   35
          inv.  90 deg rotation - cart. axis [0,0,-1]            
     6s_d    29   30   38   37   34   33
          inv. 180 deg rotation - cart. axis [1,1,0]             

   Cartesian axes

     site n.     atom                  positions (alat units)
         1           Ca  tau(   1) = (  -0.0000000   0.0000000   0.0000000  )
         2           O   tau(   2) = (  -0.5005864   0.5005864   0.5005864  )

   Crystallographic axes

     site n.     atom                  positions (cryst. coord.)
         1           Ca  tau(   1) = (  0.0000000  0.0000000  0.0000000  )
         2           O   tau(   2) = (  0.5000000  0.5000000  0.5000000  )

     number of k points=     8  gaussian smearing, width (Ry)=  0.0100
                       cart. coord. in units 2pi/alat
        k(    1) = (   0.0000000   0.0000000   0.0000000), wk =   0.0312500
        k(    2) = (  -0.2497071   0.2497071  -0.2497071), wk =   0.2500000
        k(    3) = (   0.4994143  -0.4994143   0.4994143), wk =   0.1250000
        k(    4) = (   0.0000000   0.4994143   0.0000000), wk =   0.1875000
        k(    5) = (   0.7491214  -0.2497071   0.7491214), wk =   0.7500000
        k(    6) = (   0.4994143   0.0000000   0.4994143), wk =   0.3750000
        k(    7) = (   0.0000000  -0.9988285   0.0000000), wk =   0.0937500
        k(    8) = (  -0.4994143  -0.9988285  -0.0000000), wk =   0.1875000

                       cryst. coord.
        k(    1) = (   0.0000000   0.0000000   0.0000000), wk =   0.0312500
        k(    2) = (   0.0000000   0.0000000   0.2500000), wk =   0.2500000
        k(    3) = (   0.0000000   0.0000000  -0.5000000), wk =   0.1250000
        k(    4) = (   0.0000000   0.2500000   0.2500000), wk =   0.1875000
        k(    5) = (   0.0000000   0.2500000  -0.5000000), wk =   0.7500000
        k(    6) = (   0.0000000   0.2500000  -0.2500000), wk =   0.3750000
        k(    7) = (  -0.0000000  -0.5000000  -0.5000000), wk =   0.0937500
        k(    8) = (   0.2500000  -0.5000000  -0.2500000), wk =   0.1875000

     Dense  grid:    14841 G-vectors     FFT dimensions: (  36,  36,  36)

     Smooth grid:     4477 G-vectors     FFT dimensions: (  24,  24,  24)

     Dynamical RAM for                 wfc:       0.01 MB

     Dynamical RAM for     wfc (w. buffer):       0.11 MB

     Dynamical RAM for           str. fact:       0.06 MB

     Dynamical RAM for           local pot:       0.03 MB

     Dynamical RAM for          nlocal pot:       0.03 MB

     Dynamical RAM for                qrad:       7.76 MB

     Dynamical RAM for          rho,v,vnew:       0.23 MB

     Dynamical RAM for               rhoin:       0.08 MB

     Dynamical RAM for            rho*nmix:       0.45 MB

     Dynamical RAM for           G-vectors:       0.11 MB

     Dynamical RAM for          h,s,v(r/c):       0.11 MB

     Dynamical RAM for          <psi|beta>:       0.00 MB

     Dynamical RAM for                 psi:       0.05 MB

     Dynamical RAM for                hpsi:       0.05 MB

     Dynamical RAM for                spsi:       0.05 MB

     Dynamical RAM for      wfcinit/wfcrot:       0.03 MB

     Dynamical RAM for           addusdens:       5.29 MB

     Dynamical RAM for          addusforce:       5.40 MB

     Dynamical RAM for         addusstress:       5.69 MB

     Estimated static dynamical RAM per process >       9.19 MB

     Estimated max dynamical RAM per process >      14.88 MB

     Estimated total dynamical RAM >     119.03 MB

     Check: negative core charge=   -0.000004

     Initial potential from superposition of free atoms

     starting charge   15.99454, renormalised to   16.00000

     negative rho (up, down):  1.690E-04 0.000E+00
     Starting wfcs are   14 randomized atomic wfcs

     total cpu time spent up to now is        9.6 secs

     Self-consistent Calculation

     iteration #  1     ecut=    35.00 Ry     beta= 0.40
     Davidson diagonalization with overlap
     ethr =  1.00E-06,  avg # of iterations =  8.3

     negative rho (up, down):  1.752E-04 0.000E+00

     total cpu time spent up to now is        9.9 secs

     total energy              =    -106.94434515 Ry
     Harris-Foulkes estimate   =    -107.18400776 Ry
     estimated scf accuracy    <       0.46115405 Ry

     iteration #  2     ecut=    35.00 Ry     beta= 0.40
     Davidson diagonalization with overlap
     ethr =  2.88E-03,  avg # of iterations =  2.8

     negative rho (up, down):  1.693E-04 0.000E+00

     total cpu time spent up to now is       10.1 secs

     total energy              =    -107.05572218 Ry
     Harris-Foulkes estimate   =    -107.07833999 Ry
     estimated scf accuracy    <       0.06101612 Ry

     iteration #  3     ecut=    35.00 Ry     beta= 0.40
     Davidson diagonalization with overlap
     ethr =  3.81E-04,  avg # of iterations =  2.6

     negative rho (up, down):  1.663E-04 0.000E+00

     total cpu time spent up to now is       10.2 secs

     total energy              =    -107.06765946 Ry
     Harris-Foulkes estimate   =    -107.06701845 Ry
     estimated scf accuracy    <       0.00549407 Ry

     iteration #  4     ecut=    35.00 Ry     beta= 0.40
     Davidson diagonalization with overlap
     ethr =  3.43E-05,  avg # of iterations =  2.4

     negative rho (up, down):  1.669E-04 0.000E+00

     total cpu time spent up to now is       10.3 secs

     total energy              =    -107.06811452 Ry
     Harris-Foulkes estimate   =    -107.06811393 Ry
     estimated scf accuracy    <       0.00003695 Ry

     iteration #  5     ecut=    35.00 Ry     beta= 0.40
     Davidson diagonalization with overlap
     ethr =  2.31E-07,  avg # of iterations =  3.3

     negative rho (up, down):  1.674E-04 0.000E+00

     total cpu time spent up to now is       10.5 secs

     total energy              =    -107.06815980 Ry
     Harris-Foulkes estimate   =    -107.06814840 Ry
     estimated scf accuracy    <       0.00000823 Ry

     iteration #  6     ecut=    35.00 Ry     beta= 0.40
     Davidson diagonalization with overlap
     ethr =  5.15E-08,  avg # of iterations =  2.8

     negative rho (up, down):  1.674E-04 0.000E+00

     total cpu time spent up to now is       10.6 secs

     total energy              =    -107.06816242 Ry
     Harris-Foulkes estimate   =    -107.06816265 Ry
     estimated scf accuracy    <       0.00000240 Ry

     iteration #  7     ecut=    35.00 Ry     beta= 0.40
     Davidson diagonalization with overlap
     ethr =  1.50E-08,  avg # of iterations =  2.4

     negative rho (up, down):  1.674E-04 0.000E+00

     total cpu time spent up to now is       10.7 secs

     total energy              =    -107.06816317 Ry
     Harris-Foulkes estimate   =    -107.06816291 Ry
     estimated scf accuracy    <       0.00000012 Ry

     iteration #  8     ecut=    35.00 Ry     beta= 0.40
     Davidson diagonalization with overlap
     ethr =  7.35E-10,  avg # of iterations =  2.4

     negative rho (up, down):  1.673E-04 0.000E+00

     total cpu time spent up to now is       10.9 secs

     total energy              =    -107.06816329 Ry
     Harris-Foulkes estimate   =    -107.06816320 Ry
     estimated scf accuracy    <       0.00000002 Ry

     iteration #  9     ecut=    35.00 Ry     beta= 0.40
     Davidson diagonalization with overlap
     ethr =  1.40E-10,  avg # of iterations =  2.8

     negative rho (up, down):  1.673E-04 0.000E+00

     total cpu time spent up to now is       11.0 secs

     End of self-consistent calculation

          k = 0.0000 0.0000 0.0000 (   537 PWs)   bands (ev):

   -27.0500  -7.6285  -7.6285  -7.6285  -5.8986   9.9633   9.9633   9.9633
    16.2768  16.5755  16.5755  16.5755

     occupation numbers 
     1.0000   1.0000   1.0000   1.0000   1.0000   1.0000   1.0000   1.0000
     0.0000   0.0000   0.0000   0.0000

          k =-0.2497 0.2497-0.2497 (   549 PWs)   bands (ev):

   -26.9410  -8.9368  -7.6689  -7.6689  -4.6106   8.2176   9.0735   9.0735
    16.7195  17.7663  17.7663  18.5221

     occupation numbers 
     1.0000   1.0000   1.0000   1.0000   1.0000   1.0000   1.0000   1.0000
     0.0000   0.0000   0.0000   0.0000

          k = 0.4994-0.4994 0.4994 (   568 PWs)   bands (ev):

   -26.8288  -9.7363  -7.7083  -7.7083  -3.8192   6.8968   8.3694   8.3694
    17.8633  19.2845  19.2845  19.8725

     occupation numbers 
     1.0000   1.0000   1.0000   1.0000   1.0000   1.0000   1.0000   1.0000
     0.0000   0.0000   0.0000   0.0000

          k = 0.0000 0.4994 0.0000 (   560 PWs)   bands (ev):

   -26.9072  -8.7104  -7.8305  -7.8305  -4.9038   7.9983   9.6570   9.6570
    14.7282  18.0547  18.8924  18.8924

     occupation numbers 
     1.0000   1.0000   1.0000   1.0000   1.0000   1.0000   1.0000   1.0000
     0.0000   0.0000   0.0000   0.0000

          k = 0.7491-0.2497 0.7491 (   550 PWs)   bands (ev):

   -26.7975  -9.1623  -8.0902  -7.8724  -4.6379   8.0254   8.7325   8.9897
    15.6065  18.8781  19.9021  20.2120

     occupation numbers 
     1.0000   1.0000   1.0000   1.0000   1.0000   1.0000   1.0000   1.0000
     0.0000   0.0000   0.0000   0.0000

          k = 0.4994 0.0000 0.4994 (   548 PWs)   bands (ev):

   -26.8323  -9.2444  -8.1050  -7.7123  -4.2884   7.5479   8.5085   9.0856
    17.0373  18.2419  18.5534  19.5344

     occupation numbers 
     1.0000   1.0000   1.0000   1.0000   1.0000   1.0000   1.0000   1.0000
     0.0000   0.0000   0.0000   0.0000

          k = 0.0000-0.9988 0.0000 (   556 PWs)   bands (ev):

   -26.7657  -8.6966  -8.0300  -8.0300  -5.7234   8.8229   9.6571   9.6571
    13.4795  19.3985  19.8573  20.7062

     occupation numbers 
     1.0000   1.0000   1.0000   1.0000   1.0000   1.0000   1.0000   1.0000
     0.0000   0.0000   0.0000   0.0000

          k =-0.4994-0.9988-0.0000 (   524 PWs)   bands (ev):

   -26.7626  -8.5619  -8.3712  -8.3712  -4.8429   8.3767   8.9541   8.9541
    16.7962  16.7962  19.6330  20.7156

     occupation numbers 
     1.0000   1.0000   1.0000   1.0000   1.0000   1.0000   1.0000   1.0000
     0.0000   0.0000   0.0000   0.0000

     the Fermi energy is    11.9296 ev

!    total energy              =    -107.06816335 Ry
     Harris-Foulkes estimate   =    -107.06816330 Ry
     estimated scf accuracy    <          5.7E-09 Ry

     The total energy is the sum of the following terms:

     one-electron contribution =     -18.39469891 Ry
     hartree contribution      =      18.63697691 Ry
     xc contribution           =     -19.28844771 Ry
     ewald contribution        =     -88.02199365 Ry
     smearing contrib. (-TS)   =      -0.00000000 Ry

     convergence has been achieved in   9 iterations

     negative rho (up, down):  1.673E-04 0.000E+00

     Forces acting on atoms (cartesian axes, Ry/au):

     atom    1 type  1   force =     0.00000000    0.00000000    0.00000000
     atom    2 type  2   force =     0.00000000    0.00000000    0.00000000
     The non-local contrib.  to forces
     atom    1 type  1   force =     0.00000000   -0.00000000   -0.00000000
     atom    2 type  2   force =     0.00000000   -0.00000000    0.00000000
     The ionic contribution  to forces
     atom    1 type  1   force =    -0.00000000    0.00000000    0.00000000
     atom    2 type  2   force =     0.00000000   -0.00000000   -0.00000000
     The local contribution  to forces
     atom    1 type  1   force =    -0.00000000    0.00000000    0.00000000
     atom    2 type  2   force =     0.00000000   -0.00000000   -0.00000000
     The core correction contribution to forces
     atom    1 type  1   force =     0.00000000    0.00000000    0.00000000
     atom    2 type  2   force =     0.00000000    0.00000000    0.00000000
     The Hubbard contrib.    to forces
     atom    1 type  1   force =     0.00000000    0.00000000    0.00000000
     atom    2 type  2   force =     0.00000000    0.00000000    0.00000000
     The SCF correction term to forces
     atom    1 type  1   force =     0.00000000   -0.00000000    0.00000000
     atom    2 type  2   force =     0.00000000   -0.00000000    0.00000000

     Total force =     0.000000     Total SCF correction =     0.000000


     Computing stress (Cartesian axis) and pressure


     negative rho (up, down):  1.673E-04 0.000E+00
          total   stress  (Ry/bohr**3)                   (kbar)     P=  299.37
   0.00203507  -0.00000000   0.00000000        299.37     -0.00      0.00
   0.00000000   0.00203507   0.00000000          0.00    299.37      0.00
   0.00000000   0.00000000   0.00203507          0.00      0.00    299.37

     kinetic stress (kbar)  16857.69      0.00      0.00
                                0.00  16857.69     -0.00
                                0.00     -0.00  16857.69

     local   stress (kbar)  -3518.92      0.00      0.00
                                0.00  -3518.92     -0.00
                                0.00     -0.00  -3518.92

     nonloc. stress (kbar)  14206.47      0.00      0.00
                                0.00  14206.47      0.00
                                0.00      0.00  14206.47

     hartree stress (kbar)   5808.54     -0.00      0.00
                               -0.00   5808.54     -0.00
                                0.00     -0.00   5808.54

     exc-cor stress (kbar)  -4045.51      0.00     -0.00
                                0.00  -4045.51      0.00
                               -0.00      0.00  -4045.51

     corecor stress (kbar)  -1575.30      0.00     -0.00
                                0.00  -1575.30      0.00
                               -0.00     -0.00  -1575.30

     ewald   stress (kbar) -27433.61      0.00     -0.00
                                0.00 -27433.61     -0.00
                               -0.00     -0.00 -27433.61

     hubbard stress (kbar)      0.00      0.00      0.00
                                0.00      0.00      0.00
                                0.00      0.00      0.00

     london  stress (kbar)      0.00      0.00      0.00
                                0.00      0.00      0.00
                                0.00      0.00      0.00

     DFT-D3  stress (kbar)      0.00      0.00      0.00
                                0.00      0.00      0.00
                                0.00      0.00      0.00

     XDM     stress (kbar)      0.00      0.00      0.00
                                0.00      0.00      0.00
                                0.00      0.00      0.00

     dft-nl  stress (kbar)      0.00      0.00      0.00
                                0.00      0.00      0.00
                                0.00      0.00      0.00

     TS-vdW  stress (kbar)      0.00      0.00      0.00
                                0.00      0.00      0.00
                                0.00      0.00      0.00



     Writing output data file CaO.save/
 
     init_run     :      0.50s CPU      0.58s WALL (       2 calls)
     electrons    :      3.50s CPU      5.30s WALL (       5 calls)
     update_pot   :      0.51s CPU      0.49s WALL (       3 calls)
     forces       :      0.41s CPU      0.42s WALL (       5 calls)
     stress       :      1.51s CPU      1.54s WALL (       5 calls)

     Called by init_run:
     wfcinit      :      0.04s CPU      0.09s WALL (       2 calls)
     wfcinit:atom :      0.00s CPU      0.00s WALL (      16 calls)
     wfcinit:wfcr :      0.04s CPU      0.08s WALL (      16 calls)
     potinit      :      0.07s CPU      0.08s WALL (       2 calls)
     hinit0       :      0.36s CPU      0.36s WALL (       2 calls)

     Called by electrons:
     c_bands      :      2.44s CPU      3.65s WALL (      37 calls)
     sum_band     :      0.59s CPU      0.83s WALL (      37 calls)
     v_of_rho     :      0.25s CPU      0.27s WALL (      40 calls)
     v_h          :      0.01s CPU      0.01s WALL (      40 calls)
     v_xc         :      0.29s CPU      0.31s WALL (      50 calls)
     newd         :      0.20s CPU      0.24s WALL (      40 calls)
     mix_rho      :      0.04s CPU      0.03s WALL (      37 calls)

     Called by c_bands:
     init_us_2    :      0.04s CPU      0.04s WALL (     688 calls)
     cegterg      :      2.31s CPU      3.30s WALL (     296 calls)

     Called by sum_band:
     sum_band:bec :      0.00s CPU      0.01s WALL (     296 calls)
     addusdens    :      0.23s CPU      0.23s WALL (      37 calls)

     Called by *egterg:
     h_psi        :      1.70s CPU      2.63s WALL (    1042 calls)
     s_psi        :      0.03s CPU      0.03s WALL (    1042 calls)
     g_psi        :      0.01s CPU      0.02s WALL (     730 calls)
     cdiaghg      :      0.23s CPU      0.30s WALL (     986 calls)
     cegterg:over :      0.13s CPU      0.11s WALL (     730 calls)
     cegterg:upda :      0.01s CPU      0.03s WALL (     730 calls)
     cegterg:last :      0.01s CPU      0.01s WALL (     304 calls)

     Called by h_psi:
     h_psi:pot    :      1.69s CPU      2.60s WALL (    1042 calls)
     h_psi:calbec :      0.08s CPU      0.11s WALL (    1042 calls)
     vloc_psi     :      1.56s CPU      2.39s WALL (    1042 calls)
     add_vuspsi   :      0.02s CPU      0.04s WALL (    1042 calls)

     General routines
     calbec       :      0.08s CPU      0.13s WALL (    1538 calls)
     fft          :      0.28s CPU      0.21s WALL (     640 calls)
     ffts         :      0.00s CPU      0.01s WALL (      77 calls)
     fftw         :      1.70s CPU      2.49s WALL (   21864 calls)
     interpolate  :      0.04s CPU      0.02s WALL (      40 calls)
 
     Parallel routines
     fft_scatt_xy :      0.24s CPU      0.37s WALL (   22581 calls)
     fft_scatt_yz :      0.78s CPU      1.08s WALL (   22581 calls)
 
     PWSCF        :      8.42s CPU     12.69s WALL

 
   This run was terminated on:   6: 3: 6  13Mar2020            

=------------------------------------------------------------------------------=
   JOB DONE.
=------------------------------------------------------------------------------=
