
     Program PWSCF v.6.4.1 starts on 13Mar2020 at  6: 1:46 

     This program is part of the open-source Quantum ESPRESSO suite
     for quantum simulation of materials; please cite
         "P. Giannozzi et al., J. Phys.:Condens. Matter 21 395502 (2009);
         "P. Giannozzi et al., J. Phys.:Condens. Matter 29 465901 (2017);
          URL http://www.quantum-espresso.org", 
     in publications or presentations arising from this work. More details at
     http://www.quantum-espresso.org/quote

     Parallel version (MPI), running on     8 processors

     MPI processes distributed on     1 nodes
     R & G space division:  proc/nbgrp/npool/nimage =       8
     Waiting for input...
     Reading input from standard input

     Current dimensions of program PWSCF are:
     Max number of different atomic species (ntypx) = 10
     Max number of k-points (npk) =  40000
     Max angular momentum in pseudopotentials (lmaxx) =  3

     Subspace diagonalization in iterative solution of the eigenvalue problem:
     a serial algorithm will be used

 
     Parallelization info
     --------------------
     sticks:   dense  smooth     PW     G-vecs:    dense   smooth      PW
     Min         111      49     15                 2196      650     117
     Max         112      50     16                 2198      652     121
     Sum         889     397    121                17573     5209     941
 


     bravais-lattice index     =            2
     lattice parameter (alat)  =       9.0858  a.u.
     unit-cell volume          =     187.5124 (a.u.)^3
     number of atoms/cell      =            2
     number of atomic types    =            2
     number of electrons       =        16.00
     number of Kohn-Sham states=           12
     kinetic-energy cutoff     =      35.0000  Ry
     charge density cutoff     =     315.0000  Ry
     convergence threshold     =      1.0E-06
     mixing beta               =       0.4000
     number of iterations used =            8  plain     mixing
     Exchange-correlation      = SLA PW PBE PBE ( 1  4  3  4 0 0)
     nstep                     =          100


     celldm(1)=   9.085803  celldm(2)=   0.000000  celldm(3)=   0.000000
     celldm(4)=   0.000000  celldm(5)=   0.000000  celldm(6)=   0.000000

     crystal axes: (cart. coord. in units of alat)
               a(1) = (  -0.500000   0.000000   0.500000 )  
               a(2) = (   0.000000   0.500000   0.500000 )  
               a(3) = (  -0.500000   0.500000   0.000000 )  

     reciprocal axes: (cart. coord. in units 2 pi/alat)
               b(1) = ( -1.000000 -1.000000  1.000000 )  
               b(2) = (  1.000000  1.000000  1.000000 )  
               b(3) = ( -1.000000  1.000000 -1.000000 )  


     PseudoPot. # 1 for Ca read from file:
     ../pseudo/Ca.pbe-nsp-van.UPF
     MD5 check sum: cdab9c70410076c6adf7f3c9fd3601e0
     Pseudo is Ultrasoft + core correction, Zval = 10.0
     Generated by new atomic code, or converted to UPF format
     Using radial grid of  845 points,  6 beta functions with: 
                l(1) =   0
                l(2) =   0
                l(3) =   1
                l(4) =   1
                l(5) =   2
                l(6) =   2
     Q(r) pseudized with  6 coefficients,  rinner =    1.200   1.200   1.200
                                                       1.200   1.200

     PseudoPot. # 2 for O  read from file:
     ../pseudo/O.pbe-van_ak.UPF
     MD5 check sum: 572909515f9aa9498032b6eb5528d5f9
     Pseudo is Ultrasoft, Zval =  6.0
     Generated by new atomic code, or converted to UPF format
     Using radial grid of  737 points,  4 beta functions with: 
                l(1) =   0
                l(2) =   0
                l(3) =   1
                l(4) =   1
     Q(r) pseudized with  8 coefficients,  rinner =    0.800   0.800   0.800


     atomic species   valence    mass     pseudopotential
        Ca            10.00    40.07800     Ca( 1.00)
        O              6.00    15.99940     O ( 1.00)

     48 Sym. Ops., with inversion, found


                                    s                        frac. trans.

      isym =  1     identity                                     

 cryst.   s( 1) = (     1          0          0      )
                  (     0          1          0      )
                  (     0          0          1      )

 cart.    s( 1) = (  1.0000000  0.0000000  0.0000000 )
                  (  0.0000000  1.0000000  0.0000000 )
                  (  0.0000000  0.0000000  1.0000000 )


      isym =  2     180 deg rotation - cart. axis [0,0,1]        

 cryst.   s( 2) = (     0          1         -1      )
                  (     1          0         -1      )
                  (     0          0         -1      )

 cart.    s( 2) = ( -1.0000000  0.0000000  0.0000000 )
                  (  0.0000000 -1.0000000  0.0000000 )
                  (  0.0000000  0.0000000  1.0000000 )


      isym =  3     180 deg rotation - cart. axis [0,1,0]        

 cryst.   s( 3) = (    -1          0          0      )
                  (    -1          0          1      )
                  (    -1          1          0      )

 cart.    s( 3) = ( -1.0000000  0.0000000  0.0000000 )
                  (  0.0000000  1.0000000  0.0000000 )
                  (  0.0000000  0.0000000 -1.0000000 )


      isym =  4     180 deg rotation - cart. axis [1,0,0]        

 cryst.   s( 4) = (     0         -1          1      )
                  (     0         -1          0      )
                  (     1         -1          0      )

 cart.    s( 4) = (  1.0000000  0.0000000  0.0000000 )
                  (  0.0000000 -1.0000000  0.0000000 )
                  (  0.0000000  0.0000000 -1.0000000 )


      isym =  5     180 deg rotation - cart. axis [1,1,0]        

 cryst.   s( 5) = (     0         -1          0      )
                  (    -1          0          0      )
                  (     0          0         -1      )

 cart.    s( 5) = (  0.0000000  1.0000000  0.0000000 )
                  (  1.0000000  0.0000000  0.0000000 )
                  (  0.0000000  0.0000000 -1.0000000 )


      isym =  6     180 deg rotation - cart. axis [1,-1,0]       

 cryst.   s( 6) = (    -1          0          1      )
                  (     0         -1          1      )
                  (     0          0          1      )

 cart.    s( 6) = (  0.0000000 -1.0000000  0.0000000 )
                  ( -1.0000000  0.0000000  0.0000000 )
                  (  0.0000000  0.0000000 -1.0000000 )


      isym =  7      90 deg rotation - cart. axis [0,0,-1]       

 cryst.   s( 7) = (     0          1          0      )
                  (     0          1         -1      )
                  (    -1          1          0      )

 cart.    s( 7) = (  0.0000000  1.0000000  0.0000000 )
                  ( -1.0000000  0.0000000  0.0000000 )
                  (  0.0000000  0.0000000  1.0000000 )


      isym =  8      90 deg rotation - cart. axis [0,0,1]        

 cryst.   s( 8) = (     1          0         -1      )
                  (     1          0          0      )
                  (     1         -1          0      )

 cart.    s( 8) = (  0.0000000 -1.0000000  0.0000000 )
                  (  1.0000000  0.0000000  0.0000000 )
                  (  0.0000000  0.0000000  1.0000000 )


      isym =  9     180 deg rotation - cart. axis [1,0,1]        

 cryst.   s( 9) = (    -1          0          0      )
                  (     0          0         -1      )
                  (     0         -1          0      )

 cart.    s( 9) = (  0.0000000  0.0000000  1.0000000 )
                  (  0.0000000 -1.0000000  0.0000000 )
                  (  1.0000000  0.0000000  0.0000000 )


      isym = 10     180 deg rotation - cart. axis [-1,0,1]       

 cryst.   s(10) = (     1          0          0      )
                  (     1         -1          0      )
                  (     1          0         -1      )

 cart.    s(10) = (  0.0000000  0.0000000 -1.0000000 )
                  (  0.0000000 -1.0000000  0.0000000 )
                  ( -1.0000000  0.0000000  0.0000000 )


      isym = 11      90 deg rotation - cart. axis [0,1,0]        

 cryst.   s(11) = (     0          1         -1      )
                  (    -1          1          0      )
                  (     0          1          0      )

 cart.    s(11) = (  0.0000000  0.0000000  1.0000000 )
                  (  0.0000000  1.0000000  0.0000000 )
                  ( -1.0000000  0.0000000  0.0000000 )


      isym = 12      90 deg rotation - cart. axis [0,-1,0]       

 cryst.   s(12) = (     0         -1          1      )
                  (     0          0          1      )
                  (    -1          0          1      )

 cart.    s(12) = (  0.0000000  0.0000000 -1.0000000 )
                  (  0.0000000  1.0000000  0.0000000 )
                  (  1.0000000  0.0000000  0.0000000 )


      isym = 13     180 deg rotation - cart. axis [0,1,1]        

 cryst.   s(13) = (    -1          1          0      )
                  (     0          1          0      )
                  (     0          1         -1      )

 cart.    s(13) = ( -1.0000000  0.0000000  0.0000000 )
                  (  0.0000000  0.0000000  1.0000000 )
                  (  0.0000000  1.0000000  0.0000000 )


      isym = 14     180 deg rotation - cart. axis [0,1,-1]       

 cryst.   s(14) = (     0          0         -1      )
                  (     0         -1          0      )
                  (    -1          0          0      )

 cart.    s(14) = ( -1.0000000  0.0000000  0.0000000 )
                  (  0.0000000  0.0000000 -1.0000000 )
                  (  0.0000000 -1.0000000  0.0000000 )


      isym = 15      90 deg rotation - cart. axis [-1,0,0]       

 cryst.   s(15) = (     0          0          1      )
                  (    -1          0          1      )
                  (     0         -1          1      )

 cart.    s(15) = (  1.0000000  0.0000000  0.0000000 )
                  (  0.0000000  0.0000000  1.0000000 )
                  (  0.0000000 -1.0000000  0.0000000 )


      isym = 16      90 deg rotation - cart. axis [1,0,0]        

 cryst.   s(16) = (     1         -1          0      )
                  (     1          0         -1      )
                  (     1          0          0      )

 cart.    s(16) = (  1.0000000  0.0000000  0.0000000 )
                  (  0.0000000  0.0000000 -1.0000000 )
                  (  0.0000000  1.0000000  0.0000000 )


      isym = 17     120 deg rotation - cart. axis [-1,-1,-1]     

 cryst.   s(17) = (    -1          0          1      )
                  (    -1          1          0      )
                  (    -1          0          0      )

 cart.    s(17) = (  0.0000000  1.0000000  0.0000000 )
                  (  0.0000000  0.0000000  1.0000000 )
                  (  1.0000000  0.0000000  0.0000000 )


      isym = 18     120 deg rotation - cart. axis [-1,1,1]       

 cryst.   s(18) = (     0          1          0      )
                  (     0          0          1      )
                  (     1          0          0      )

 cart.    s(18) = (  0.0000000 -1.0000000  0.0000000 )
                  (  0.0000000  0.0000000  1.0000000 )
                  ( -1.0000000  0.0000000  0.0000000 )


      isym = 19     120 deg rotation - cart. axis [1,1,-1]       

 cryst.   s(19) = (     1          0         -1      )
                  (     0          0         -1      )
                  (     0          1         -1      )

 cart.    s(19) = (  0.0000000  1.0000000  0.0000000 )
                  (  0.0000000  0.0000000 -1.0000000 )
                  ( -1.0000000  0.0000000  0.0000000 )


      isym = 20     120 deg rotation - cart. axis [1,-1,1]       

 cryst.   s(20) = (     0         -1          0      )
                  (     1         -1          0      )
                  (     0         -1          1      )

 cart.    s(20) = (  0.0000000 -1.0000000  0.0000000 )
                  (  0.0000000  0.0000000 -1.0000000 )
                  (  1.0000000  0.0000000  0.0000000 )


      isym = 21     120 deg rotation - cart. axis [1,1,1]        

 cryst.   s(21) = (     0          0         -1      )
                  (     0          1         -1      )
                  (     1          0         -1      )

 cart.    s(21) = (  0.0000000  0.0000000  1.0000000 )
                  (  1.0000000  0.0000000  0.0000000 )
                  (  0.0000000  1.0000000  0.0000000 )


      isym = 22     120 deg rotation - cart. axis [-1,1,-1]      

 cryst.   s(22) = (    -1          1          0      )
                  (    -1          0          0      )
                  (    -1          0          1      )

 cart.    s(22) = (  0.0000000  0.0000000  1.0000000 )
                  ( -1.0000000  0.0000000  0.0000000 )
                  (  0.0000000 -1.0000000  0.0000000 )


      isym = 23     120 deg rotation - cart. axis [1,-1,-1]      

 cryst.   s(23) = (     0          0          1      )
                  (     1          0          0      )
                  (     0          1          0      )

 cart.    s(23) = (  0.0000000  0.0000000 -1.0000000 )
                  ( -1.0000000  0.0000000  0.0000000 )
                  (  0.0000000  1.0000000  0.0000000 )


      isym = 24     120 deg rotation - cart. axis [-1,-1,1]      

 cryst.   s(24) = (     1         -1          0      )
                  (     0         -1          1      )
                  (     0         -1          0      )

 cart.    s(24) = (  0.0000000  0.0000000 -1.0000000 )
                  (  1.0000000  0.0000000  0.0000000 )
                  (  0.0000000 -1.0000000  0.0000000 )


      isym = 25     inversion                                    

 cryst.   s(25) = (    -1          0          0      )
                  (     0         -1          0      )
                  (     0          0         -1      )

 cart.    s(25) = ( -1.0000000  0.0000000  0.0000000 )
                  (  0.0000000 -1.0000000  0.0000000 )
                  (  0.0000000  0.0000000 -1.0000000 )


      isym = 26     inv. 180 deg rotation - cart. axis [0,0,1]   

 cryst.   s(26) = (     0         -1          1      )
                  (    -1          0          1      )
                  (     0          0          1      )

 cart.    s(26) = (  1.0000000  0.0000000  0.0000000 )
                  (  0.0000000  1.0000000  0.0000000 )
                  (  0.0000000  0.0000000 -1.0000000 )


      isym = 27     inv. 180 deg rotation - cart. axis [0,1,0]   

 cryst.   s(27) = (     1          0          0      )
                  (     1          0         -1      )
                  (     1         -1          0      )

 cart.    s(27) = (  1.0000000  0.0000000  0.0000000 )
                  (  0.0000000 -1.0000000  0.0000000 )
                  (  0.0000000  0.0000000  1.0000000 )


      isym = 28     inv. 180 deg rotation - cart. axis [1,0,0]   

 cryst.   s(28) = (     0          1         -1      )
                  (     0          1          0      )
                  (    -1          1          0      )

 cart.    s(28) = ( -1.0000000  0.0000000  0.0000000 )
                  (  0.0000000  1.0000000  0.0000000 )
                  (  0.0000000  0.0000000  1.0000000 )


      isym = 29     inv. 180 deg rotation - cart. axis [1,1,0]   

 cryst.   s(29) = (     0          1          0      )
                  (     1          0          0      )
                  (     0          0          1      )

 cart.    s(29) = (  0.0000000 -1.0000000  0.0000000 )
                  ( -1.0000000  0.0000000  0.0000000 )
                  (  0.0000000  0.0000000  1.0000000 )


      isym = 30     inv. 180 deg rotation - cart. axis [1,-1,0]  

 cryst.   s(30) = (     1          0         -1      )
                  (     0          1         -1      )
                  (     0          0         -1      )

 cart.    s(30) = (  0.0000000  1.0000000  0.0000000 )
                  (  1.0000000  0.0000000  0.0000000 )
                  (  0.0000000  0.0000000  1.0000000 )


      isym = 31     inv.  90 deg rotation - cart. axis [0,0,-1]  

 cryst.   s(31) = (     0         -1          0      )
                  (     0         -1          1      )
                  (     1         -1          0      )

 cart.    s(31) = (  0.0000000 -1.0000000  0.0000000 )
                  (  1.0000000  0.0000000  0.0000000 )
                  (  0.0000000  0.0000000 -1.0000000 )


      isym = 32     inv.  90 deg rotation - cart. axis [0,0,1]   

 cryst.   s(32) = (    -1          0          1      )
                  (    -1          0          0      )
                  (    -1          1          0      )

 cart.    s(32) = (  0.0000000  1.0000000  0.0000000 )
                  ( -1.0000000  0.0000000  0.0000000 )
                  (  0.0000000  0.0000000 -1.0000000 )


      isym = 33     inv. 180 deg rotation - cart. axis [1,0,1]   

 cryst.   s(33) = (     1          0          0      )
                  (     0          0          1      )
                  (     0          1          0      )

 cart.    s(33) = (  0.0000000  0.0000000 -1.0000000 )
                  (  0.0000000  1.0000000  0.0000000 )
                  ( -1.0000000  0.0000000  0.0000000 )


      isym = 34     inv. 180 deg rotation - cart. axis [-1,0,1]  

 cryst.   s(34) = (    -1          0          0      )
                  (    -1          1          0      )
                  (    -1          0          1      )

 cart.    s(34) = (  0.0000000  0.0000000  1.0000000 )
                  (  0.0000000  1.0000000  0.0000000 )
                  (  1.0000000  0.0000000  0.0000000 )


      isym = 35     inv.  90 deg rotation - cart. axis [0,1,0]   

 cryst.   s(35) = (     0         -1          1      )
                  (     1         -1          0      )
                  (     0         -1          0      )

 cart.    s(35) = (  0.0000000  0.0000000 -1.0000000 )
                  (  0.0000000 -1.0000000  0.0000000 )
                  (  1.0000000  0.0000000  0.0000000 )


      isym = 36     inv.  90 deg rotation - cart. axis [0,-1,0]  

 cryst.   s(36) = (     0          1         -1      )
                  (     0          0         -1      )
                  (     1          0         -1      )

 cart.    s(36) = (  0.0000000  0.0000000  1.0000000 )
                  (  0.0000000 -1.0000000  0.0000000 )
                  ( -1.0000000  0.0000000  0.0000000 )


      isym = 37     inv. 180 deg rotation - cart. axis [0,1,1]   

 cryst.   s(37) = (     1         -1          0      )
                  (     0         -1          0      )
                  (     0         -1          1      )

 cart.    s(37) = (  1.0000000  0.0000000  0.0000000 )
                  (  0.0000000  0.0000000 -1.0000000 )
                  (  0.0000000 -1.0000000  0.0000000 )


      isym = 38     inv. 180 deg rotation - cart. axis [0,1,-1]  

 cryst.   s(38) = (     0          0          1      )
                  (     0          1          0      )
                  (     1          0          0      )

 cart.    s(38) = (  1.0000000  0.0000000  0.0000000 )
                  (  0.0000000  0.0000000  1.0000000 )
                  (  0.0000000  1.0000000  0.0000000 )


      isym = 39     inv.  90 deg rotation - cart. axis [-1,0,0]  

 cryst.   s(39) = (     0          0         -1      )
                  (     1          0         -1      )
                  (     0          1         -1      )

 cart.    s(39) = ( -1.0000000  0.0000000  0.0000000 )
                  (  0.0000000  0.0000000 -1.0000000 )
                  (  0.0000000  1.0000000  0.0000000 )


      isym = 40     inv.  90 deg rotation - cart. axis [1,0,0]   

 cryst.   s(40) = (    -1          1          0      )
                  (    -1          0          1      )
                  (    -1          0          0      )

 cart.    s(40) = ( -1.0000000  0.0000000  0.0000000 )
                  (  0.0000000  0.0000000  1.0000000 )
                  (  0.0000000 -1.0000000  0.0000000 )


      isym = 41     inv. 120 deg rotation - cart. axis [-1,-1,-1]

 cryst.   s(41) = (     1          0         -1      )
                  (     1         -1          0      )
                  (     1          0          0      )

 cart.    s(41) = (  0.0000000 -1.0000000  0.0000000 )
                  (  0.0000000  0.0000000 -1.0000000 )
                  ( -1.0000000  0.0000000  0.0000000 )


      isym = 42     inv. 120 deg rotation - cart. axis [-1,1,1]  

 cryst.   s(42) = (     0         -1          0      )
                  (     0          0         -1      )
                  (    -1          0          0      )

 cart.    s(42) = (  0.0000000  1.0000000  0.0000000 )
                  (  0.0000000  0.0000000 -1.0000000 )
                  (  1.0000000  0.0000000  0.0000000 )


      isym = 43     inv. 120 deg rotation - cart. axis [1,1,-1]  

 cryst.   s(43) = (    -1          0          1      )
                  (     0          0          1      )
                  (     0         -1          1      )

 cart.    s(43) = (  0.0000000 -1.0000000  0.0000000 )
                  (  0.0000000  0.0000000  1.0000000 )
                  (  1.0000000  0.0000000  0.0000000 )


      isym = 44     inv. 120 deg rotation - cart. axis [1,-1,1]  

 cryst.   s(44) = (     0          1          0      )
                  (    -1          1          0      )
                  (     0          1         -1      )

 cart.    s(44) = (  0.0000000  1.0000000  0.0000000 )
                  (  0.0000000  0.0000000  1.0000000 )
                  ( -1.0000000  0.0000000  0.0000000 )


      isym = 45     inv. 120 deg rotation - cart. axis [1,1,1]   

 cryst.   s(45) = (     0          0          1      )
                  (     0         -1          1      )
                  (    -1          0          1      )

 cart.    s(45) = (  0.0000000  0.0000000 -1.0000000 )
                  ( -1.0000000  0.0000000  0.0000000 )
                  (  0.0000000 -1.0000000  0.0000000 )


      isym = 46     inv. 120 deg rotation - cart. axis [-1,1,-1] 

 cryst.   s(46) = (     1         -1          0      )
                  (     1          0          0      )
                  (     1          0         -1      )

 cart.    s(46) = (  0.0000000  0.0000000 -1.0000000 )
                  (  1.0000000  0.0000000  0.0000000 )
                  (  0.0000000  1.0000000  0.0000000 )


      isym = 47     inv. 120 deg rotation - cart. axis [1,-1,-1] 

 cryst.   s(47) = (     0          0         -1      )
                  (    -1          0          0      )
                  (     0         -1          0      )

 cart.    s(47) = (  0.0000000  0.0000000  1.0000000 )
                  (  1.0000000  0.0000000  0.0000000 )
                  (  0.0000000 -1.0000000  0.0000000 )


      isym = 48     inv. 120 deg rotation - cart. axis [-1,-1,1] 

 cryst.   s(48) = (    -1          1          0      )
                  (     0          1         -1      )
                  (     0          1          0      )

 cart.    s(48) = (  0.0000000  0.0000000  1.0000000 )
                  ( -1.0000000  0.0000000  0.0000000 )
                  (  0.0000000  1.0000000  0.0000000 )


     point group O_h (m-3m) 
     there are 10 classes
     the character table:

       E     8C3   3C2   6C4   6C2'  i     8S6   3s_h  6S4   6s_d 
A_1g   1.00  1.00  1.00  1.00  1.00  1.00  1.00  1.00  1.00  1.00
A_2g   1.00  1.00  1.00 -1.00 -1.00  1.00  1.00  1.00 -1.00 -1.00
E_g    2.00 -1.00  2.00  0.00  0.00  2.00 -1.00  2.00  0.00  0.00
T_1g   3.00  0.00 -1.00  1.00 -1.00  3.00  0.00 -1.00  1.00 -1.00
T_2g   3.00  0.00 -1.00 -1.00  1.00  3.00  0.00 -1.00 -1.00  1.00
A_1u   1.00  1.00  1.00  1.00  1.00 -1.00 -1.00 -1.00 -1.00 -1.00
A_2u   1.00  1.00  1.00 -1.00 -1.00 -1.00 -1.00 -1.00  1.00  1.00
E_u    2.00 -1.00  2.00  0.00  0.00 -2.00  1.00 -2.00  0.00  0.00
T_1u   3.00  0.00 -1.00  1.00 -1.00 -3.00  0.00  1.00 -1.00  1.00
T_2u   3.00  0.00 -1.00 -1.00  1.00 -3.00  0.00  1.00  1.00 -1.00

     the symmetry operations in each class and the name of the first element:

     E        1
          identity                                               
     8C3     17   19   20   18   24   21   22   23
          120 deg rotation - cart. axis [-1,-1,-1]               
     3C2      2    4    3
          180 deg rotation - cart. axis [0,0,1]                  
     6C4      7    8   15   16   12   11
           90 deg rotation - cart. axis [0,0,-1]                 
     6C2'     5    6   14   13   10    9
          180 deg rotation - cart. axis [1,1,0]                  
     i       25
          inversion                                              
     8S6     41   43   44   42   48   45   46   47
          inv. 120 deg rotation - cart. axis [-1,-1,-1]          
     3s_h    26   28   27
          inv. 180 deg rotation - cart. axis [0,0,1]             
     6S4     31   32   39   40   36   35
          inv.  90 deg rotation - cart. axis [0,0,-1]            
     6s_d    29   30   38   37   34   33
          inv. 180 deg rotation - cart. axis [1,1,0]             

   Cartesian axes

     site n.     atom                  positions (alat units)
         1           Ca  tau(   1) = (   0.0000000   0.0000000   0.0000000  )
         2           O   tau(   2) = (  -0.5000000   0.5000000   0.5000000  )

   Crystallographic axes

     site n.     atom                  positions (cryst. coord.)
         1           Ca  tau(   1) = (  0.0000000  0.0000000  0.0000000  )
         2           O   tau(   2) = (  0.5000000  0.5000000  0.5000000  )

     number of k points=     8  gaussian smearing, width (Ry)=  0.0100
                       cart. coord. in units 2pi/alat
        k(    1) = (   0.0000000   0.0000000   0.0000000), wk =   0.0312500
        k(    2) = (  -0.2500000   0.2500000  -0.2500000), wk =   0.2500000
        k(    3) = (   0.5000000  -0.5000000   0.5000000), wk =   0.1250000
        k(    4) = (   0.0000000   0.5000000   0.0000000), wk =   0.1875000
        k(    5) = (   0.7500000  -0.2500000   0.7500000), wk =   0.7500000
        k(    6) = (   0.5000000   0.0000000   0.5000000), wk =   0.3750000
        k(    7) = (   0.0000000  -1.0000000   0.0000000), wk =   0.0937500
        k(    8) = (  -0.5000000  -1.0000000   0.0000000), wk =   0.1875000

                       cryst. coord.
        k(    1) = (   0.0000000   0.0000000   0.0000000), wk =   0.0312500
        k(    2) = (   0.0000000   0.0000000   0.2500000), wk =   0.2500000
        k(    3) = (   0.0000000   0.0000000  -0.5000000), wk =   0.1250000
        k(    4) = (   0.0000000   0.2500000   0.2500000), wk =   0.1875000
        k(    5) = (   0.0000000   0.2500000  -0.5000000), wk =   0.7500000
        k(    6) = (   0.0000000   0.2500000  -0.2500000), wk =   0.3750000
        k(    7) = (   0.0000000  -0.5000000  -0.5000000), wk =   0.0937500
        k(    8) = (   0.2500000  -0.5000000  -0.2500000), wk =   0.1875000

     Dense  grid:    17573 G-vectors     FFT dimensions: (  40,  40,  40)

     Smooth grid:     5209 G-vectors     FFT dimensions: (  25,  25,  25)

     Dynamical RAM for                 wfc:       0.02 MB

     Dynamical RAM for     wfc (w. buffer):       0.14 MB

     Dynamical RAM for           str. fact:       0.07 MB

     Dynamical RAM for           local pot:       0.00 MB

     Dynamical RAM for          nlocal pot:       0.03 MB

     Dynamical RAM for                qrad:       8.24 MB

     Dynamical RAM for          rho,v,vnew:       0.28 MB

     Dynamical RAM for               rhoin:       0.09 MB

     Dynamical RAM for            rho*nmix:       0.54 MB

     Dynamical RAM for           G-vectors:       0.13 MB

     Dynamical RAM for          h,s,v(r/c):       0.11 MB

     Dynamical RAM for          <psi|beta>:       0.00 MB

     Dynamical RAM for                 psi:       0.06 MB

     Dynamical RAM for                hpsi:       0.06 MB

     Dynamical RAM for                spsi:       0.06 MB

     Dynamical RAM for      wfcinit/wfcrot:       0.04 MB

     Dynamical RAM for           addusdens:       6.27 MB

     Dynamical RAM for          addusforce:       6.39 MB

     Dynamical RAM for         addusstress:       6.74 MB

     Estimated static dynamical RAM per process >       9.92 MB

     Estimated max dynamical RAM per process >      16.66 MB

     Estimated total dynamical RAM >     133.27 MB

     Check: negative core charge=   -0.000004

     Initial potential from superposition of free atoms

     starting charge   15.99454, renormalised to   16.00000

     negative rho (up, down):  1.520E-04 0.000E+00
     Starting wfcs are   14 randomized atomic wfcs

     total cpu time spent up to now is        2.9 secs

     Self-consistent Calculation

     iteration #  1     ecut=    35.00 Ry     beta= 0.40
     Davidson diagonalization with overlap
     ethr =  1.00E-02,  avg # of iterations =  2.1

     negative rho (up, down):  1.564E-04 0.000E+00

     total cpu time spent up to now is        3.0 secs

     total energy              =    -106.95177557 Ry
     Harris-Foulkes estimate   =    -107.20473370 Ry
     estimated scf accuracy    <       0.48569774 Ry

     iteration #  2     ecut=    35.00 Ry     beta= 0.40
     Davidson diagonalization with overlap
     ethr =  3.04E-03,  avg # of iterations =  2.5

     negative rho (up, down):  1.513E-04 0.000E+00

     total cpu time spent up to now is        3.2 secs

     total energy              =    -107.07732449 Ry
     Harris-Foulkes estimate   =    -107.11446548 Ry
     estimated scf accuracy    <       0.09949993 Ry

     iteration #  3     ecut=    35.00 Ry     beta= 0.40
     Davidson diagonalization with overlap
     ethr =  6.22E-04,  avg # of iterations =  2.5

     negative rho (up, down):  1.488E-04 0.000E+00

     total cpu time spent up to now is        3.3 secs

     total energy              =    -107.09658138 Ry
     Harris-Foulkes estimate   =    -107.09584595 Ry
     estimated scf accuracy    <       0.00612177 Ry

     iteration #  4     ecut=    35.00 Ry     beta= 0.40
     Davidson diagonalization with overlap
     ethr =  3.83E-05,  avg # of iterations =  3.1

     negative rho (up, down):  1.489E-04 0.000E+00

     total cpu time spent up to now is        3.5 secs

     total energy              =    -107.09724769 Ry
     Harris-Foulkes estimate   =    -107.09724388 Ry
     estimated scf accuracy    <       0.00002369 Ry

     iteration #  5     ecut=    35.00 Ry     beta= 0.40
     Davidson diagonalization with overlap
     ethr =  1.48E-07,  avg # of iterations =  3.8

     negative rho (up, down):  1.493E-04 0.000E+00

     total cpu time spent up to now is        3.7 secs

     total energy              =    -107.09730370 Ry
     Harris-Foulkes estimate   =    -107.09729351 Ry
     estimated scf accuracy    <       0.00000767 Ry

     iteration #  6     ecut=    35.00 Ry     beta= 0.40
     Davidson diagonalization with overlap
     ethr =  4.80E-08,  avg # of iterations =  2.9

     negative rho (up, down):  1.493E-04 0.000E+00

     total cpu time spent up to now is        3.8 secs

     total energy              =    -107.09730675 Ry
     Harris-Foulkes estimate   =    -107.09730747 Ry
     estimated scf accuracy    <       0.00000444 Ry

     iteration #  7     ecut=    35.00 Ry     beta= 0.40
     Davidson diagonalization with overlap
     ethr =  2.78E-08,  avg # of iterations =  2.0

     negative rho (up, down):  1.492E-04 0.000E+00

     total cpu time spent up to now is        3.9 secs

     End of self-consistent calculation

          k = 0.0000 0.0000 0.0000 (   645 PWs)   bands (ev):

   -29.8480 -10.6099 -10.6099 -10.6099  -7.7180   7.8071   7.8071   7.8071
    12.5310  14.0383  14.0383  14.0383

     occupation numbers 
     1.0000   1.0000   1.0000   1.0000   1.0000   1.0000   1.0000   1.0000
     0.0000   0.0000   0.0000   0.0000

          k =-0.2500 0.2500-0.2500 (   640 PWs)   bands (ev):

   -29.7974 -11.2374 -10.6367 -10.6367  -7.0545   6.2769   7.1510   7.1510
    14.0645  14.6759  14.9912  14.9912

     occupation numbers 
     1.0000   1.0000   1.0000   1.0000   1.0000   1.0000   1.0000   1.0000
     0.0000   0.0000   0.0000   0.0000

          k = 0.5000-0.5000 0.5000 (   652 PWs)   bands (ev):

   -29.7461 -11.7158 -10.6631 -10.6631  -6.5340   5.1756   6.6142   6.6142
    14.8688  16.1636  16.1636  16.2988

     occupation numbers 
     1.0000   1.0000   1.0000   1.0000   1.0000   1.0000   1.0000   1.0000
     0.0000   0.0000   0.0000   0.0000

          k = 0.0000 0.5000 0.0000 (   649 PWs)   bands (ev):

   -29.7815 -11.1228 -10.7230 -10.7230  -7.1913   6.1309   7.5083   7.5083
    12.5167  14.4260  15.8711  15.8712

     occupation numbers 
     1.0000   1.0000   1.0000   1.0000   1.0000   1.0000   1.0000   1.0000
     0.0000   0.0000   0.0000   0.0000

          k = 0.7500-0.2500 0.7500 (   655 PWs)   bands (ev):

   -29.7311 -11.3899 -10.8646 -10.7505  -6.9745   6.0191   6.7273   7.0097
    13.1592  15.6665  16.6421  16.6750

     occupation numbers 
     1.0000   1.0000   1.0000   1.0000   1.0000   1.0000   1.0000   1.0000
     0.0000   0.0000   0.0000   0.0000

          k = 0.5000 0.0000 0.5000 (   656 PWs)   bands (ev):

   -29.7473 -11.4186 -10.8744 -10.6647  -6.8179   5.7457   6.7096   6.9635
    14.3032  15.0788  15.6506  16.1930

     occupation numbers 
     1.0000   1.0000   1.0000   1.0000   1.0000   1.0000   1.0000   1.0000
     0.0000   0.0000   0.0000   0.0000

          k = 0.0000-1.0000 0.0000 (   652 PWs)   bands (ev):

   -29.7159 -11.2069 -10.8359 -10.8359  -7.4817   6.5012   7.4314   7.4314
    11.4558  15.8533  16.6942  17.3359

     occupation numbers 
     1.0000   1.0000   1.0000   1.0000   1.0000   1.0000   1.0000   1.0000
     0.0000   0.0000   0.0000   0.0000

          k =-0.5000-1.0000 0.0000 (   648 PWs)   bands (ev):

   -29.7149 -11.0334 -11.0236 -11.0236  -7.0976   6.5269   6.7475   6.7475
    14.1259  14.1259  16.1920  17.3419

     occupation numbers 
     1.0000   1.0000   1.0000   1.0000   1.0000   1.0000   1.0000   1.0000
     0.0000   0.0000   0.0000   0.0000

     the Fermi energy is     8.6638 ev

!    total energy              =    -107.09730751 Ry
     Harris-Foulkes estimate   =    -107.09730724 Ry
     estimated scf accuracy    <       0.00000025 Ry

     The total energy is the sum of the following terms:

     one-electron contribution =     -25.76537434 Ry
     hartree contribution      =      20.77502242 Ry
     xc contribution           =     -19.08631694 Ry
     ewald contribution        =     -83.02063866 Ry
     smearing contrib. (-TS)   =      -0.00000000 Ry

     convergence has been achieved in   7 iterations

     negative rho (up, down):  1.492E-04 0.000E+00

     Forces acting on atoms (cartesian axes, Ry/au):

     atom    1 type  1   force =     0.00000000    0.00000000    0.00000000
     atom    2 type  2   force =     0.00000000    0.00000000    0.00000000
     The non-local contrib.  to forces
     atom    1 type  1   force =     0.00000000    0.00000000    0.00000000
     atom    2 type  2   force =     0.00000000    0.00000000    0.00000000
     The ionic contribution  to forces
     atom    1 type  1   force =     0.00000000   -0.00000000   -0.00000000
     atom    2 type  2   force =    -0.00000000    0.00000000    0.00000000
     The local contribution  to forces
     atom    1 type  1   force =     0.00000000   -0.00000000   -0.00000000
     atom    2 type  2   force =    -0.00000000    0.00000000    0.00000000
     The core correction contribution to forces
     atom    1 type  1   force =     0.00000000   -0.00000000    0.00000000
     atom    2 type  2   force =     0.00000000    0.00000000    0.00000000
     The Hubbard contrib.    to forces
     atom    1 type  1   force =     0.00000000    0.00000000    0.00000000
     atom    2 type  2   force =     0.00000000    0.00000000    0.00000000
     The SCF correction term to forces
     atom    1 type  1   force =    -0.00000000    0.00000000   -0.00000000
     atom    2 type  2   force =    -0.00000000    0.00000000   -0.00000000

     Total force =     0.000000     Total SCF correction =     0.000000


     Computing stress (Cartesian axis) and pressure


     negative rho (up, down):  1.492E-04 0.000E+00
          total   stress  (Ry/bohr**3)                   (kbar)     P=   14.21
   0.00009658   0.00000000  -0.00000000         14.21      0.00     -0.00
   0.00000000   0.00009658  -0.00000000          0.00     14.21     -0.00
  -0.00000000   0.00000000   0.00009658         -0.00      0.00     14.21

     kinetic stress (kbar)  13890.84     -0.00      0.00
                               -0.00  13890.84      0.00
                                0.00      0.00  13890.84

     local   stress (kbar)  -4786.91     -0.00      0.00
                               -0.00  -4786.91     -0.00
                                0.00     -0.00  -4786.91

     nonloc. stress (kbar)  11856.06     -0.00     -0.00
                               -0.00  11856.06      0.00
                               -0.00      0.00  11856.06

     hartree stress (kbar)   5432.73     -0.00     -0.00
                               -0.00   5432.73      0.00
                               -0.00      0.00   5432.73

     exc-cor stress (kbar)  -3348.05      0.00     -0.00
                                0.00  -3348.05      0.00
                               -0.00      0.00  -3348.05

     corecor stress (kbar)  -1320.33      0.00     -0.00
                                0.00  -1320.33     -0.00
                               -0.00     -0.00  -1320.33

     ewald   stress (kbar) -21710.13     -0.00      0.00
                               -0.00 -21710.13     -0.00
                                0.00     -0.00 -21710.13

     hubbard stress (kbar)      0.00      0.00      0.00
                                0.00      0.00      0.00
                                0.00      0.00      0.00

     london  stress (kbar)      0.00      0.00      0.00
                                0.00      0.00      0.00
                                0.00      0.00      0.00

     DFT-D3  stress (kbar)      0.00      0.00      0.00
                                0.00      0.00      0.00
                                0.00      0.00      0.00

     XDM     stress (kbar)      0.00      0.00      0.00
                                0.00      0.00      0.00
                                0.00      0.00      0.00

     dft-nl  stress (kbar)      0.00      0.00      0.00
                                0.00      0.00      0.00
                                0.00      0.00      0.00

     TS-vdW  stress (kbar)      0.00      0.00      0.00
                                0.00      0.00      0.00
                                0.00      0.00      0.00



     BFGS Geometry Optimization

     number of scf cycles    =   1
     number of bfgs steps    =   0

     enthalpy new            =    -106.9953328235 Ry

     new trust radius        =       0.0306221017 bohr
     new conv_thr            =       0.0000010000 Ry

     new unit-cell volume =    181.29260 a.u.^3 (    26.86479 Ang^3 )
     density =      3.46620 g/cm^3

CELL_PARAMETERS (alat=  9.08580325)
  -0.494409380  -0.000000000   0.494409380
  -0.000000000   0.494409380   0.494409380
  -0.494409380   0.494409380   0.000000000

ATOMIC_POSITIONS (crystal)
Ca       0.000000000   0.000000000   0.000000000
O        0.500000000   0.500000000   0.500000000



     Writing output data file CaO.save/
     NEW-OLD atomic charge density approx. for the potential

     Check: negative core charge=   -0.000004

     negative rho (up, down):  1.387E-04 0.000E+00
     extrapolated charge   15.45126, renormalised to   16.00000

     total cpu time spent up to now is        4.8 secs

     Self-consistent Calculation

     iteration #  1     ecut=    35.00 Ry     beta= 0.40
     Davidson diagonalization with overlap
     ethr =  1.00E-06,  avg # of iterations =  5.1

     negative rho (up, down):  1.392E-04 0.000E+00

     total cpu time spent up to now is        5.0 secs

     total energy              =    -107.05135182 Ry
     Harris-Foulkes estimate   =    -107.70234539 Ry
     estimated scf accuracy    <       0.04054023 Ry

     iteration #  2     ecut=    35.00 Ry     beta= 0.40
     Davidson diagonalization with overlap
     ethr =  2.53E-04,  avg # of iterations =  3.3

     negative rho (up, down):  1.391E-04 0.000E+00

     total cpu time spent up to now is        5.2 secs

     total energy              =    -107.09441383 Ry
     Harris-Foulkes estimate   =    -107.11593854 Ry
     estimated scf accuracy    <       0.08654905 Ry

     iteration #  3     ecut=    35.00 Ry     beta= 0.40
     Davidson diagonalization with overlap
     ethr =  2.53E-04,  avg # of iterations =  2.3

     negative rho (up, down):  1.409E-04 0.000E+00

     total cpu time spent up to now is        5.3 secs

     total energy              =    -107.09548669 Ry
     Harris-Foulkes estimate   =    -107.09926346 Ry
     estimated scf accuracy    <       0.01674654 Ry

     iteration #  4     ecut=    35.00 Ry     beta= 0.40
     Davidson diagonalization with overlap
     ethr =  1.05E-04,  avg # of iterations =  1.8

     negative rho (up, down):  1.436E-04 0.000E+00

     total cpu time spent up to now is        5.5 secs

     total energy              =    -107.09530139 Ry
     Harris-Foulkes estimate   =    -107.09665569 Ry
     estimated scf accuracy    <       0.00402250 Ry

     iteration #  5     ecut=    35.00 Ry     beta= 0.40
     Davidson diagonalization with overlap
     ethr =  2.51E-05,  avg # of iterations =  2.5

     negative rho (up, down):  1.443E-04 0.000E+00

     total cpu time spent up to now is        5.6 secs

     total energy              =    -107.09591153 Ry
     Harris-Foulkes estimate   =    -107.09596717 Ry
     estimated scf accuracy    <       0.00012071 Ry

     iteration #  6     ecut=    35.00 Ry     beta= 0.40
     Davidson diagonalization with overlap
     ethr =  7.54E-07,  avg # of iterations =  3.0

     negative rho (up, down):  1.446E-04 0.000E+00

     total cpu time spent up to now is        5.8 secs

     total energy              =    -107.09601531 Ry
     Harris-Foulkes estimate   =    -107.09597458 Ry
     estimated scf accuracy    <       0.00001605 Ry

     iteration #  7     ecut=    35.00 Ry     beta= 0.40
     Davidson diagonalization with overlap
     ethr =  1.00E-07,  avg # of iterations =  3.5

     negative rho (up, down):  1.438E-04 0.000E+00

     total cpu time spent up to now is        5.9 secs

     total energy              =    -107.09594547 Ry
     Harris-Foulkes estimate   =    -107.09603952 Ry
     estimated scf accuracy    <       0.00025342 Ry

     iteration #  8     ecut=    35.00 Ry     beta= 0.40
     Davidson diagonalization with overlap
     ethr =  1.00E-07,  avg # of iterations =  3.0

     negative rho (up, down):  1.439E-04 0.000E+00

     total cpu time spent up to now is        6.1 secs

     total energy              =    -107.09597628 Ry
     Harris-Foulkes estimate   =    -107.09597372 Ry
     estimated scf accuracy    <       0.00000882 Ry

     iteration #  9     ecut=    35.00 Ry     beta= 0.40
     Davidson diagonalization with overlap
     ethr =  5.51E-08,  avg # of iterations =  1.1

     negative rho (up, down):  1.438E-04 0.000E+00

     total cpu time spent up to now is        6.2 secs

     total energy              =    -107.09597557 Ry
     Harris-Foulkes estimate   =    -107.09597668 Ry
     estimated scf accuracy    <       0.00001909 Ry

     iteration # 10     ecut=    35.00 Ry     beta= 0.40
     Davidson diagonalization with overlap
     ethr =  5.51E-08,  avg # of iterations =  1.0

     negative rho (up, down):  1.436E-04 0.000E+00

     total cpu time spent up to now is        6.3 secs

     total energy              =    -107.09596736 Ry
     Harris-Foulkes estimate   =    -107.09597563 Ry
     estimated scf accuracy    <       0.00001619 Ry

     iteration # 11     ecut=    35.00 Ry     beta= 0.40
     Davidson diagonalization with overlap
     ethr =  5.51E-08,  avg # of iterations =  3.1

     negative rho (up, down):  1.436E-04 0.000E+00

     total cpu time spent up to now is        6.5 secs

     total energy              =    -107.09597181 Ry
     Harris-Foulkes estimate   =    -107.09597222 Ry
     estimated scf accuracy    <       0.00000194 Ry

     iteration # 12     ecut=    35.00 Ry     beta= 0.40
     Davidson diagonalization with overlap
     ethr =  1.21E-08,  avg # of iterations =  1.4

     negative rho (up, down):  1.437E-04 0.000E+00

     total cpu time spent up to now is        6.6 secs

     End of self-consistent calculation

          k = 0.0000 0.0000 0.0000 (   645 PWs)   bands (ev):

   -29.3293 -10.0655 -10.0655 -10.0655  -7.3960   8.1933   8.1933   8.1933
    13.1958  14.5023  14.5023  14.5023

     occupation numbers 
     1.0000   1.0000   1.0000   1.0000   1.0000   1.0000   1.0000   1.0000
     0.0000   0.0000   0.0000   0.0000

          k =-0.2528 0.2528-0.2528 (   640 PWs)   bands (ev):

   -29.2704 -10.7935 -10.0946 -10.0946  -6.6382   6.6230   7.4977   7.4977
    14.5508  15.3597  15.4977  15.4977

     occupation numbers 
     1.0000   1.0000   1.0000   1.0000   1.0000   1.0000   1.0000   1.0000
     0.0000   0.0000   0.0000   0.0000

          k = 0.5057-0.5057 0.5057 (   652 PWs)   bands (ev):

   -29.2107 -11.3276 -10.1233 -10.1233  -6.0673   5.4809   6.9321   6.9321
    15.4119  16.7310  16.7310  16.9439

     occupation numbers 
     1.0000   1.0000   1.0000   1.0000   1.0000   1.0000   1.0000   1.0000
     0.0000   0.0000   0.0000   0.0000

          k = 0.0000 0.5057 0.0000 (   649 PWs)   bands (ev):

   -29.2520 -10.6604 -10.1923 -10.1923  -6.7996   6.4646   7.8911   7.8911
    12.9219  15.0772  16.4208  16.4208

     occupation numbers 
     1.0000   1.0000   1.0000   1.0000   1.0000   1.0000   1.0000   1.0000
     0.0000   0.0000   0.0000   0.0000

          k = 0.7585-0.2528 0.7585 (   655 PWs)   bands (ev):

   -29.1933 -10.9586 -10.3518 -10.2221  -6.5698   6.3717   7.0825   7.3639
    13.6056  16.2526  17.2613  17.2807

     occupation numbers 
     1.0000   1.0000   1.0000   1.0000   1.0000   1.0000   1.0000   1.0000
     0.0000   0.0000   0.0000   0.0000

          k = 0.5057 0.0000 0.5057 (   656 PWs)   bands (ev):

   -29.2121 -10.9960 -10.3624 -10.1253  -6.3842   6.0669   7.0345   7.3380
    14.8005  15.6569  16.1802  16.7944

     occupation numbers 
     1.0000   1.0000   1.0000   1.0000   1.0000   1.0000   1.0000   1.0000
     0.0000   0.0000   0.0000   0.0000

          k = 0.0000-1.0113 0.0000 (   652 PWs)   bands (ev):

   -29.1758 -10.7352 -10.3185 -10.3185  -7.1624   6.9037   7.8253   7.8253
    11.8266  16.4897  17.2698  17.9476

     occupation numbers 
     1.0000   1.0000   1.0000   1.0000   1.0000   1.0000   1.0000   1.0000
     0.0000   0.0000   0.0000   0.0000

          k =-0.5057-1.0113 0.0000 (   648 PWs)   bands (ev):

   -29.1745 -10.5596 -10.5297 -10.5297  -6.7102   6.8591   7.1335   7.1335
    14.6123  14.6123  16.8116  17.9540

     occupation numbers 
     1.0000   1.0000   1.0000   1.0000   1.0000   1.0000   1.0000   1.0000
     0.0000   0.0000   0.0000   0.0000

     the Fermi energy is     9.2585 ev

!    total energy              =    -107.09597138 Ry
     Harris-Foulkes estimate   =    -107.09597190 Ry
     estimated scf accuracy    <       0.00000061 Ry

     The total energy is the sum of the following terms:

     one-electron contribution =     -24.37003659 Ry
     hartree contribution      =      20.35460937 Ry
     xc contribution           =     -19.12113512 Ry
     ewald contribution        =     -83.95940904 Ry
     smearing contrib. (-TS)   =      -0.00000000 Ry

     convergence has been achieved in  12 iterations

     negative rho (up, down):  1.437E-04 0.000E+00

     Forces acting on atoms (cartesian axes, Ry/au):

     atom    1 type  1   force =     0.00000000    0.00000000    0.00000000
     atom    2 type  2   force =     0.00000000    0.00000000    0.00000000
     The non-local contrib.  to forces
     atom    1 type  1   force =     0.00000000    0.00000000    0.00000000
     atom    2 type  2   force =     0.00000000    0.00000000    0.00000000
     The ionic contribution  to forces
     atom    1 type  1   force =    -0.00000000    0.00000000    0.00000000
     atom    2 type  2   force =     0.00000000   -0.00000000   -0.00000000
     The local contribution  to forces
     atom    1 type  1   force =     0.00000000   -0.00000000   -0.00000000
     atom    2 type  2   force =    -0.00000000    0.00000000    0.00000000
     The core correction contribution to forces
     atom    1 type  1   force =     0.00000000   -0.00000000   -0.00000000
     atom    2 type  2   force =     0.00000000    0.00000000    0.00000000
     The Hubbard contrib.    to forces
     atom    1 type  1   force =     0.00000000    0.00000000    0.00000000
     atom    2 type  2   force =     0.00000000    0.00000000    0.00000000
     The SCF correction term to forces
     atom    1 type  1   force =     0.00000000   -0.00000000    0.00000000
     atom    2 type  2   force =    -0.00000000    0.00000000   -0.00000000

     Total force =     0.000000     Total SCF correction =     0.000000


     Computing stress (Cartesian axis) and pressure


     negative rho (up, down):  1.437E-04 0.000E+00
          total   stress  (Ry/bohr**3)                   (kbar)     P=   50.09
   0.00034052   0.00000000   0.00000000         50.09      0.00      0.00
   0.00000000   0.00034052  -0.00000000          0.00     50.09     -0.00
   0.00000000  -0.00000000   0.00034052          0.00     -0.00     50.09

     kinetic stress (kbar)  14413.21      0.00     -0.00
                                0.00  14413.21     -0.00
                               -0.00     -0.00  14413.21

     local   stress (kbar)  -4590.80     -0.00     -0.00
                               -0.00  -4590.80     -0.00
                               -0.00     -0.00  -4590.80

     nonloc. stress (kbar)  12268.12     -0.00      0.00
                               -0.00  12268.12      0.00
                                0.00      0.00  12268.12

     hartree stress (kbar)   5505.40     -0.00     -0.00
                               -0.00   5505.40      0.00
                               -0.00      0.00   5505.40

     exc-cor stress (kbar)  -3471.08      0.00     -0.00
                                0.00  -3471.08      0.00
                               -0.00      0.00  -3471.08

     corecor stress (kbar)  -1365.88     -0.00      0.00
                               -0.00  -1365.88      0.00
                                0.00      0.00  -1365.88

     ewald   stress (kbar) -22708.88      0.00      0.00
                                0.00 -22708.88     -0.00
                                0.00     -0.00 -22708.88

     hubbard stress (kbar)      0.00      0.00      0.00
                                0.00      0.00      0.00
                                0.00      0.00      0.00

     london  stress (kbar)      0.00      0.00      0.00
                                0.00      0.00      0.00
                                0.00      0.00      0.00

     DFT-D3  stress (kbar)      0.00      0.00      0.00
                                0.00      0.00      0.00
                                0.00      0.00      0.00

     XDM     stress (kbar)      0.00      0.00      0.00
                                0.00      0.00      0.00
                                0.00      0.00      0.00

     dft-nl  stress (kbar)      0.00      0.00      0.00
                                0.00      0.00      0.00
                                0.00      0.00      0.00

     TS-vdW  stress (kbar)      0.00      0.00      0.00
                                0.00      0.00      0.00
                                0.00      0.00      0.00



     number of scf cycles    =   2
     number of bfgs steps    =   1

     enthalpy old            =    -106.9953328235 Ry
     enthalpy new            =    -106.9973791973 Ry

     CASE: enthalpy_new < enthalpy_old

     new trust radius        =       0.0243624677 bohr
     new conv_thr            =       0.0000000100 Ry

     new unit-cell volume =    176.41656 a.u.^3 (    26.14224 Ang^3 )
     density =      3.56200 g/cm^3

CELL_PARAMETERS (alat=  9.08580325)
  -0.489936492  -0.000000000   0.489936492
   0.000000000   0.489936492   0.489936492
  -0.489936492   0.489936492  -0.000000000

ATOMIC_POSITIONS (crystal)
Ca       0.000000000   0.000000000   0.000000000
O        0.500000000   0.500000000   0.500000000



     Writing output data file CaO.save/
     NEW-OLD atomic charge density approx. for the potential

     Check: negative core charge=   -0.000004

     negative rho (up, down):  1.353E-04 0.000E+00
     extrapolated charge   15.55792, renormalised to   16.00000

     total cpu time spent up to now is        7.5 secs

     Self-consistent Calculation

     iteration #  1     ecut=    35.00 Ry     beta= 0.40
     Davidson diagonalization with overlap
     ethr =  1.00E-06,  avg # of iterations =  4.9

     negative rho (up, down):  1.358E-04 0.000E+00

     total cpu time spent up to now is        7.7 secs

     total energy              =    -107.06526626 Ry
     Harris-Foulkes estimate   =    -107.56211030 Ry
     estimated scf accuracy    <       0.02596694 Ry

     iteration #  2     ecut=    35.00 Ry     beta= 0.40
     Davidson diagonalization with overlap
     ethr =  1.62E-04,  avg # of iterations =  3.3

     negative rho (up, down):  1.358E-04 0.000E+00

     total cpu time spent up to now is        7.9 secs

     total energy              =    -107.09276139 Ry
     Harris-Foulkes estimate   =    -107.10600857 Ry
     estimated scf accuracy    <       0.05253787 Ry

     iteration #  3     ecut=    35.00 Ry     beta= 0.40
     Davidson diagonalization with overlap
     ethr =  1.62E-04,  avg # of iterations =  2.1

     negative rho (up, down):  1.371E-04 0.000E+00

     total cpu time spent up to now is        8.0 secs

     total energy              =    -107.09341368 Ry
     Harris-Foulkes estimate   =    -107.09572058 Ry
     estimated scf accuracy    <       0.01020666 Ry

     iteration #  4     ecut=    35.00 Ry     beta= 0.40
     Davidson diagonalization with overlap
     ethr =  6.38E-05,  avg # of iterations =  1.8

     negative rho (up, down):  1.390E-04 0.000E+00

     total cpu time spent up to now is        8.1 secs

     total energy              =    -107.09334976 Ry
     Harris-Foulkes estimate   =    -107.09411600 Ry
     estimated scf accuracy    <       0.00253829 Ry

     iteration #  5     ecut=    35.00 Ry     beta= 0.40
     Davidson diagonalization with overlap
     ethr =  1.59E-05,  avg # of iterations =  2.5

     negative rho (up, down):  1.396E-04 0.000E+00

     total cpu time spent up to now is        8.3 secs

     total energy              =    -107.09363735 Ry
     Harris-Foulkes estimate   =    -107.09370549 Ry
     estimated scf accuracy    <       0.00018055 Ry

     iteration #  6     ecut=    35.00 Ry     beta= 0.40
     Davidson diagonalization with overlap
     ethr =  1.13E-06,  avg # of iterations =  2.8

     negative rho (up, down):  1.401E-04 0.000E+00

     total cpu time spent up to now is        8.4 secs

     total energy              =    -107.09370043 Ry
     Harris-Foulkes estimate   =    -107.09367911 Ry
     estimated scf accuracy    <       0.00000155 Ry

     iteration #  7     ecut=    35.00 Ry     beta= 0.40
     Davidson diagonalization with overlap
     ethr =  9.69E-09,  avg # of iterations =  4.3

     negative rho (up, down):  1.394E-04 0.000E+00

     total cpu time spent up to now is        8.6 secs

     total energy              =    -107.09366083 Ry
     Harris-Foulkes estimate   =    -107.09373883 Ry
     estimated scf accuracy    <       0.00021691 Ry

     iteration #  8     ecut=    35.00 Ry     beta= 0.40
     Davidson diagonalization with overlap
     ethr =  9.69E-09,  avg # of iterations =  4.0

     negative rho (up, down):  1.395E-04 0.000E+00

     total cpu time spent up to now is        8.8 secs

     total energy              =    -107.09368424 Ry
     Harris-Foulkes estimate   =    -107.09368274 Ry
     estimated scf accuracy    <       0.00001084 Ry

     iteration #  9     ecut=    35.00 Ry     beta= 0.40
     Davidson diagonalization with overlap
     ethr =  9.69E-09,  avg # of iterations =  1.5

     negative rho (up, down):  1.395E-04 0.000E+00

     total cpu time spent up to now is        8.9 secs

     total energy              =    -107.09368384 Ry
     Harris-Foulkes estimate   =    -107.09368434 Ry
     estimated scf accuracy    <       0.00001648 Ry

     iteration # 10     ecut=    35.00 Ry     beta= 0.40
     Davidson diagonalization with overlap
     ethr =  9.69E-09,  avg # of iterations =  1.0

     negative rho (up, down):  1.392E-04 0.000E+00

     total cpu time spent up to now is        9.0 secs

     total energy              =    -107.09367601 Ry
     Harris-Foulkes estimate   =    -107.09368385 Ry
     estimated scf accuracy    <       0.00001511 Ry

     iteration # 11     ecut=    35.00 Ry     beta= 0.40
     Davidson diagonalization with overlap
     ethr =  9.69E-09,  avg # of iterations =  3.8

     negative rho (up, down):  1.392E-04 0.000E+00

     total cpu time spent up to now is        9.2 secs

     total energy              =    -107.09368009 Ry
     Harris-Foulkes estimate   =    -107.09368059 Ry
     estimated scf accuracy    <       0.00000190 Ry

     iteration # 12     ecut=    35.00 Ry     beta= 0.40
     Davidson diagonalization with overlap
     ethr =  9.69E-09,  avg # of iterations =  1.3

     negative rho (up, down):  1.393E-04 0.000E+00

     total cpu time spent up to now is        9.3 secs

     total energy              =    -107.09367996 Ry
     Harris-Foulkes estimate   =    -107.09368020 Ry
     estimated scf accuracy    <       0.00000037 Ry

     iteration # 13     ecut=    35.00 Ry     beta= 0.40
     Davidson diagonalization with overlap
     ethr =  2.34E-09,  avg # of iterations =  2.9

     negative rho (up, down):  1.393E-04 0.000E+00

     total cpu time spent up to now is        9.5 secs

     total energy              =    -107.09368014 Ry
     Harris-Foulkes estimate   =    -107.09368026 Ry
     estimated scf accuracy    <       0.00000039 Ry

     iteration # 14     ecut=    35.00 Ry     beta= 0.40
     Davidson diagonalization with overlap
     ethr =  2.34E-09,  avg # of iterations =  1.5

     negative rho (up, down):  1.393E-04 0.000E+00

     total cpu time spent up to now is        9.6 secs

     total energy              =    -107.09368016 Ry
     Harris-Foulkes estimate   =    -107.09368017 Ry
     estimated scf accuracy    <       0.00000005 Ry

     iteration # 15     ecut=    35.00 Ry     beta= 0.40
     Davidson diagonalization with overlap
     ethr =  3.04E-10,  avg # of iterations =  2.9

     negative rho (up, down):  1.393E-04 0.000E+00

     total cpu time spent up to now is        9.7 secs

     End of self-consistent calculation

          k = 0.0000 0.0000 0.0000 (   645 PWs)   bands (ev):

   -28.9026  -9.6152  -9.6152  -9.6152  -7.1302   8.5110   8.5110   8.5110
    13.7511  14.8857  14.8857  14.8857

     occupation numbers 
     1.0000   1.0000   1.0000   1.0000   1.0000   1.0000   1.0000   1.0000
     0.0000   0.0000   0.0000   0.0000

          k =-0.2551 0.2551-0.2551 (   640 PWs)   bands (ev):

   -28.8362 -10.4349  -9.6463  -9.6463  -6.2872   6.9090   7.7822   7.7822
    14.9513  15.9164  15.9164  15.9305

     occupation numbers 
     1.0000   1.0000   1.0000   1.0000   1.0000   1.0000   1.0000   1.0000
     0.0000   0.0000   0.0000   0.0000

          k = 0.5103-0.5103 0.5103 (   652 PWs)   bands (ev):

   -28.7686 -11.0165  -9.6769  -9.6769  -5.6744   5.7339   7.1926   7.1926
    15.8607  17.2006  17.2006  17.4795

     occupation numbers 
     1.0000   1.0000   1.0000   1.0000   1.0000   1.0000   1.0000   1.0000
     0.0000   0.0000   0.0000   0.0000

          k = 0.0000 0.5103 0.0000 (   649 PWs)   bands (ev):

   -28.8154 -10.2856  -9.7541  -9.7541  -6.4706   6.7399   8.2070   8.2070
    13.2565  15.6187  16.8757  16.8757

     occupation numbers 
     1.0000   1.0000   1.0000   1.0000   1.0000   1.0000   1.0000   1.0000
     0.0000   0.0000   0.0000   0.0000

          k = 0.7654-0.2551 0.7654 (   655 PWs)   bands (ev):

   -28.7491 -10.6106  -9.9296  -9.7860  -6.2311   6.6650   7.3764   7.6557
    13.9745  16.7361  17.7468  17.8126

     occupation numbers 
     1.0000   1.0000   1.0000   1.0000   1.0000   1.0000   1.0000   1.0000
     0.0000   0.0000   0.0000   0.0000

          k = 0.5103 0.0000 0.5103 (   656 PWs)   bands (ev):

   -28.7703 -10.6558  -9.9409  -9.6792  -6.0192   6.3323   7.3010   7.6486
    15.2114  16.1336  16.6183  17.2941

     occupation numbers 
     1.0000   1.0000   1.0000   1.0000   1.0000   1.0000   1.0000   1.0000
     0.0000   0.0000   0.0000   0.0000

          k = 0.0000-1.0205 0.0000 (   652 PWs)   bands (ev):

   -28.7294 -10.3494  -9.8922  -9.8922  -6.9016   7.2405   8.1513   8.1513
    12.1328  17.0189  17.7462  18.4547

     occupation numbers 
     1.0000   1.0000   1.0000   1.0000   1.0000   1.0000   1.0000   1.0000
     0.0000   0.0000   0.0000   0.0000

          k =-0.5103-1.0205 0.0000 (   648 PWs)   bands (ev):

   -28.7279 -10.1752 -10.1243 -10.1243  -6.3857   7.1324   7.4550   7.4550
    15.0141  15.0141  17.3263  18.4615

     occupation numbers 
     1.0000   1.0000   1.0000   1.0000   1.0000   1.0000   1.0000   1.0000
     0.0000   0.0000   0.0000   0.0000

     the Fermi energy is     9.7508 ev

!    total energy              =    -107.09368017 Ry
     Harris-Foulkes estimate   =    -107.09368017 Ry
     estimated scf accuracy    <          1.6E-09 Ry

     The total energy is the sum of the following terms:

     one-electron contribution =     -23.23846116 Ry
     hartree contribution      =      20.02258649 Ry
     xc contribution           =     -19.15188698 Ry
     ewald contribution        =     -84.72591852 Ry
     smearing contrib. (-TS)   =      -0.00000000 Ry

     convergence has been achieved in  15 iterations

     negative rho (up, down):  1.393E-04 0.000E+00

     Forces acting on atoms (cartesian axes, Ry/au):

     atom    1 type  1   force =     0.00000000    0.00000000    0.00000000
     atom    2 type  2   force =     0.00000000    0.00000000    0.00000000
     The non-local contrib.  to forces
     atom    1 type  1   force =     0.00000000    0.00000000    0.00000000
     atom    2 type  2   force =     0.00000000    0.00000000    0.00000000
     The ionic contribution  to forces
     atom    1 type  1   force =     0.00000000   -0.00000000    0.00000000
     atom    2 type  2   force =    -0.00000000    0.00000000   -0.00000000
     The local contribution  to forces
     atom    1 type  1   force =     0.00000000   -0.00000000   -0.00000000
     atom    2 type  2   force =    -0.00000000    0.00000000    0.00000000
     The core correction contribution to forces
     atom    1 type  1   force =     0.00000000   -0.00000000    0.00000000
     atom    2 type  2   force =     0.00000000    0.00000000    0.00000000
     The Hubbard contrib.    to forces
     atom    1 type  1   force =     0.00000000    0.00000000    0.00000000
     atom    2 type  2   force =     0.00000000    0.00000000    0.00000000
     The SCF correction term to forces
     atom    1 type  1   force =    -0.00000000    0.00000000   -0.00000000
     atom    2 type  2   force =     0.00000000   -0.00000000    0.00000000

     Total force =     0.000000     Total SCF correction =     0.000000


     Computing stress (Cartesian axis) and pressure


     negative rho (up, down):  1.393E-04 0.000E+00
          total   stress  (Ry/bohr**3)                   (kbar)     P=   87.43
   0.00059434   0.00000000   0.00000000         87.43      0.00      0.00
  -0.00000000   0.00059434   0.00000000         -0.00     87.43      0.00
   0.00000000   0.00000000   0.00059434          0.00      0.00     87.43

     kinetic stress (kbar)  14853.92      0.00      0.00
                                0.00  14853.92     -0.00
                                0.00     -0.00  14853.92

     local   stress (kbar)  -4419.09     -0.00     -0.00
                               -0.00  -4419.09     -0.00
                               -0.00     -0.00  -4419.09

     nonloc. stress (kbar)  12615.26     -0.00     -0.00
                               -0.00  12615.26      0.00
                               -0.00      0.00  12615.26

     hartree stress (kbar)   5565.28      0.00      0.00
                                0.00   5565.28     -0.00
                                0.00     -0.00   5565.28

     exc-cor stress (kbar)  -3574.51     -0.00      0.00
                               -0.00  -3574.51      0.00
                                0.00      0.00  -3574.51

     corecor stress (kbar)  -1403.85      0.00      0.00
                                0.00  -1403.85      0.00
                                0.00      0.00  -1403.85

     ewald   stress (kbar) -23549.59      0.00      0.00
                                0.00 -23549.59     -0.00
                                0.00     -0.00 -23549.59

     hubbard stress (kbar)      0.00      0.00      0.00
                                0.00      0.00      0.00
                                0.00      0.00      0.00

     london  stress (kbar)      0.00      0.00      0.00
                                0.00      0.00      0.00
                                0.00      0.00      0.00

     DFT-D3  stress (kbar)      0.00      0.00      0.00
                                0.00      0.00      0.00
                                0.00      0.00      0.00

     XDM     stress (kbar)      0.00      0.00      0.00
                                0.00      0.00      0.00
                                0.00      0.00      0.00

     dft-nl  stress (kbar)      0.00      0.00      0.00
                                0.00      0.00      0.00
                                0.00      0.00      0.00

     TS-vdW  stress (kbar)      0.00      0.00      0.00
                                0.00      0.00      0.00
                                0.00      0.00      0.00



     number of scf cycles    =   3
     number of bfgs steps    =   2

     enthalpy old            =    -106.9973791973 Ry
     enthalpy new            =    -106.9977397252 Ry

     CASE: enthalpy_new < enthalpy_old

     new trust radius        =       0.0047561859 bohr
     new conv_thr            =       0.0000000100 Ry

     new unit-cell volume =    177.36584 a.u.^3 (    26.28291 Ang^3 )
     density =      3.54294 g/cm^3

CELL_PARAMETERS (alat=  9.08580325)
  -0.490813693  -0.000000000   0.490813693
   0.000000000   0.490813693   0.490813693
  -0.490813693   0.490813693  -0.000000000

ATOMIC_POSITIONS (crystal)
Ca       0.000000000   0.000000000   0.000000000
O        0.500000000   0.500000000   0.500000000



     Writing output data file CaO.save/
     NEW-OLD atomic charge density approx. for the potential

     Check: negative core charge=   -0.000004

     negative rho (up, down):  1.409E-04 0.000E+00
     extrapolated charge   16.08560, renormalised to   16.00000

     total cpu time spent up to now is       10.6 secs

     Self-consistent Calculation

     iteration #  1     ecut=    35.00 Ry     beta= 0.40
     Davidson diagonalization with overlap
     ethr =  1.00E-06,  avg # of iterations =  3.4

     negative rho (up, down):  1.408E-04 0.000E+00

     total cpu time spent up to now is       10.8 secs

     total energy              =    -107.09314660 Ry
     Harris-Foulkes estimate   =    -107.00323972 Ry
     estimated scf accuracy    <       0.00095218 Ry

     iteration #  2     ecut=    35.00 Ry     beta= 0.40
     Davidson diagonalization with overlap
     ethr =  5.95E-06,  avg # of iterations =  3.4

     negative rho (up, down):  1.408E-04 0.000E+00

     total cpu time spent up to now is       11.0 secs

     total energy              =    -107.09420024 Ry
     Harris-Foulkes estimate   =    -107.09469595 Ry
     estimated scf accuracy    <       0.00198094 Ry

     iteration #  3     ecut=    35.00 Ry     beta= 0.40
     Davidson diagonalization with overlap
     ethr =  5.95E-06,  avg # of iterations =  2.0

     negative rho (up, down):  1.406E-04 0.000E+00

     total cpu time spent up to now is       11.2 secs

     total energy              =    -107.09421050 Ry
     Harris-Foulkes estimate   =    -107.09430463 Ry
     estimated scf accuracy    <       0.00041864 Ry

     iteration #  4     ecut=    35.00 Ry     beta= 0.40
     Davidson diagonalization with overlap
     ethr =  2.62E-06,  avg # of iterations =  1.5

     negative rho (up, down):  1.403E-04 0.000E+00

     total cpu time spent up to now is       11.3 secs

     total energy              =    -107.09422046 Ry
     Harris-Foulkes estimate   =    -107.09423927 Ry
     estimated scf accuracy    <       0.00010530 Ry

     iteration #  5     ecut=    35.00 Ry     beta= 0.40
     Davidson diagonalization with overlap
     ethr =  6.58E-07,  avg # of iterations =  2.3

     negative rho (up, down):  1.402E-04 0.000E+00

     total cpu time spent up to now is       11.4 secs

     total energy              =    -107.09422335 Ry
     Harris-Foulkes estimate   =    -107.09422861 Ry
     estimated scf accuracy    <       0.00003310 Ry

     iteration #  6     ecut=    35.00 Ry     beta= 0.40
     Davidson diagonalization with overlap
     ethr =  2.07E-07,  avg # of iterations =  1.1

     negative rho (up, down):  1.400E-04 0.000E+00

     total cpu time spent up to now is       11.5 secs

     total energy              =    -107.09421473 Ry
     Harris-Foulkes estimate   =    -107.09422427 Ry
     estimated scf accuracy    <       0.00001555 Ry

     iteration #  7     ecut=    35.00 Ry     beta= 0.40
     Davidson diagonalization with overlap
     ethr =  9.72E-08,  avg # of iterations =  3.0

     negative rho (up, down):  1.401E-04 0.000E+00

     total cpu time spent up to now is       11.7 secs

     total energy              =    -107.09422005 Ry
     Harris-Foulkes estimate   =    -107.09422405 Ry
     estimated scf accuracy    <       0.00001185 Ry

     iteration #  8     ecut=    35.00 Ry     beta= 0.40
     Davidson diagonalization with overlap
     ethr =  7.41E-08,  avg # of iterations =  2.0

     negative rho (up, down):  1.401E-04 0.000E+00

     total cpu time spent up to now is       11.8 secs

     total energy              =    -107.09422075 Ry
     Harris-Foulkes estimate   =    -107.09422106 Ry
     estimated scf accuracy    <       0.00000117 Ry

     iteration #  9     ecut=    35.00 Ry     beta= 0.40
     Davidson diagonalization with overlap
     ethr =  7.30E-09,  avg # of iterations =  2.5

     negative rho (up, down):  1.401E-04 0.000E+00

     total cpu time spent up to now is       12.0 secs

     total energy              =    -107.09422092 Ry
     Harris-Foulkes estimate   =    -107.09422094 Ry
     estimated scf accuracy    <       0.00000008 Ry

     iteration # 10     ecut=    35.00 Ry     beta= 0.40
     Davidson diagonalization with overlap
     ethr =  5.25E-10,  avg # of iterations =  2.1

     negative rho (up, down):  1.401E-04 0.000E+00

     total cpu time spent up to now is       12.1 secs

     total energy              =    -107.09422093 Ry
     Harris-Foulkes estimate   =    -107.09422093 Ry
     estimated scf accuracy    <       0.00000003 Ry

     iteration # 11     ecut=    35.00 Ry     beta= 0.40
     Davidson diagonalization with overlap
     ethr =  1.83E-10,  avg # of iterations =  1.3

     negative rho (up, down):  1.401E-04 0.000E+00

     total cpu time spent up to now is       12.2 secs

     total energy              =    -107.09422093 Ry
     Harris-Foulkes estimate   =    -107.09422093 Ry
     estimated scf accuracy    <       0.00000002 Ry

     iteration # 12     ecut=    35.00 Ry     beta= 0.40
     Davidson diagonalization with overlap
     ethr =  1.31E-10,  avg # of iterations =  1.0

     negative rho (up, down):  1.401E-04 0.000E+00

     total cpu time spent up to now is       12.3 secs

     total energy              =    -107.09422093 Ry
     Harris-Foulkes estimate   =    -107.09422093 Ry
     estimated scf accuracy    <       0.00000001 Ry

     iteration # 13     ecut=    35.00 Ry     beta= 0.40
     Davidson diagonalization with overlap
     ethr =  7.06E-11,  avg # of iterations =  1.5

     negative rho (up, down):  1.401E-04 0.000E+00

     total cpu time spent up to now is       12.5 secs

     End of self-consistent calculation

          k = 0.0000 0.0000 0.0000 (   645 PWs)   bands (ev):

   -28.9870  -9.7044  -9.7044  -9.7044  -7.1836   8.4473   8.4473   8.4473
    13.6404  14.8097  14.8097  14.8097

     occupation numbers 
     1.0000   1.0000   1.0000   1.0000   1.0000   1.0000   1.0000   1.0000
     0.0000   0.0000   0.0000   0.0000

          k =-0.2547 0.2547-0.2547 (   640 PWs)   bands (ev):

   -28.9221 -10.5054  -9.7352  -9.7352  -6.3579   6.8518   7.7253   7.7253
    14.8719  15.8166  15.8334  15.8334

     occupation numbers 
     1.0000   1.0000   1.0000   1.0000   1.0000   1.0000   1.0000   1.0000
     0.0000   0.0000   0.0000   0.0000

          k = 0.5094-0.5094 0.5094 (   652 PWs)   bands (ev):

   -28.8561 -11.0775  -9.7654  -9.7654  -5.7534   5.6833   7.1405   7.1405
    15.7715  17.1075  17.1075  17.3730

     occupation numbers 
     1.0000   1.0000   1.0000   1.0000   1.0000   1.0000   1.0000   1.0000
     0.0000   0.0000   0.0000   0.0000

          k = 0.0000 0.5094 0.0000 (   649 PWs)   bands (ev):

   -28.9018 -10.3593  -9.8408  -9.8408  -6.5369   6.6848   8.1437   8.1437
    13.1902  15.5109  16.7855  16.7855

     occupation numbers 
     1.0000   1.0000   1.0000   1.0000   1.0000   1.0000   1.0000   1.0000
     0.0000   0.0000   0.0000   0.0000

          k = 0.7640-0.2547 0.7640 (   655 PWs)   bands (ev):

   -28.8371 -10.6790 -10.0131  -9.8724  -6.2992   6.6062   7.3175   7.5972
    13.9013  16.6402  17.6505  17.7068

     occupation numbers 
     1.0000   1.0000   1.0000   1.0000   1.0000   1.0000   1.0000   1.0000
     0.0000   0.0000   0.0000   0.0000

          k = 0.5094 0.0000 0.5094 (   656 PWs)   bands (ev):

   -28.8578 -10.7226 -10.0243  -9.7676  -6.0927   6.2792   7.2477   7.5864
    15.1298  16.0390  16.5315  17.1948

     occupation numbers 
     1.0000   1.0000   1.0000   1.0000   1.0000   1.0000   1.0000   1.0000
     0.0000   0.0000   0.0000   0.0000

          k = 0.0000-1.0187 0.0000 (   652 PWs)   bands (ev):

   -28.8178 -10.4255  -9.9765  -9.9765  -6.9538   7.1728   8.0859   8.0859
    12.0721  16.9137  17.6517  18.3542

     occupation numbers 
     1.0000   1.0000   1.0000   1.0000   1.0000   1.0000   1.0000   1.0000
     0.0000   0.0000   0.0000   0.0000

          k =-0.5094-1.0187 0.0000 (   648 PWs)   bands (ev):

   -28.8164 -10.2508 -10.2044 -10.2044  -6.4510   7.0777   7.3905   7.3905
    14.9344  14.9344  17.2240  18.3608

     occupation numbers 
     1.0000   1.0000   1.0000   1.0000   1.0000   1.0000   1.0000   1.0000
     0.0000   0.0000   0.0000   0.0000

     the Fermi energy is     9.6532 ev

!    total energy              =    -107.09422092 Ry
     Harris-Foulkes estimate   =    -107.09422093 Ry
     estimated scf accuracy    <          5.0E-09 Ry

     The total energy is the sum of the following terms:

     one-electron contribution =     -23.46205339 Ry
     hartree contribution      =      20.08818525 Ry
     xc contribution           =     -19.14585961 Ry
     ewald contribution        =     -84.57449318 Ry
     smearing contrib. (-TS)   =      -0.00000000 Ry

     convergence has been achieved in  13 iterations

     negative rho (up, down):  1.401E-04 0.000E+00

     Forces acting on atoms (cartesian axes, Ry/au):

     atom    1 type  1   force =     0.00000000    0.00000000    0.00000000
     atom    2 type  2   force =     0.00000000    0.00000000    0.00000000
     The non-local contrib.  to forces
     atom    1 type  1   force =     0.00000000    0.00000000    0.00000000
     atom    2 type  2   force =    -0.00000000   -0.00000000   -0.00000000
     The ionic contribution  to forces
     atom    1 type  1   force =     0.00000000   -0.00000000   -0.00000000
     atom    2 type  2   force =    -0.00000000    0.00000000    0.00000000
     The local contribution  to forces
     atom    1 type  1   force =     0.00000000   -0.00000000   -0.00000000
     atom    2 type  2   force =    -0.00000000    0.00000000    0.00000000
     The core correction contribution to forces
     atom    1 type  1   force =     0.00000000   -0.00000000   -0.00000000
     atom    2 type  2   force =     0.00000000    0.00000000    0.00000000
     The Hubbard contrib.    to forces
     atom    1 type  1   force =     0.00000000    0.00000000    0.00000000
     atom    2 type  2   force =     0.00000000    0.00000000    0.00000000
     The SCF correction term to forces
     atom    1 type  1   force =     0.00000000   -0.00000000   -0.00000000
     atom    2 type  2   force =     0.00000000   -0.00000000   -0.00000000

     Total force =     0.000000     Total SCF correction =     0.000000


     Computing stress (Cartesian axis) and pressure


     negative rho (up, down):  1.401E-04 0.000E+00
          total   stress  (Ry/bohr**3)                   (kbar)     P=   79.98
   0.00054369  -0.00000000  -0.00000000         79.98     -0.00     -0.00
  -0.00000000   0.00054369   0.00000000         -0.00     79.98      0.00
  -0.00000000   0.00000000   0.00054369         -0.00      0.00     79.98

     kinetic stress (kbar)  14766.15      0.00     -0.00
                               -0.00  14766.15      0.00
                               -0.00      0.00  14766.15

     local   stress (kbar)  -4454.16      0.00     -0.00
                                0.00  -4454.16     -0.00
                               -0.00     -0.00  -4454.16

     nonloc. stress (kbar)  12546.26      0.00      0.00
                                0.00  12546.26     -0.00
                                0.00     -0.00  12546.26

     hartree stress (kbar)   5553.63     -0.00      0.00
                               -0.00   5553.63      0.00
                                0.00      0.00   5553.63

     exc-cor stress (kbar)  -3553.92     -0.00      0.00
                               -0.00  -3553.92     -0.00
                                0.00     -0.00  -3553.92

     corecor stress (kbar)  -1396.29     -0.00      0.00
                               -0.00  -1396.29      0.00
                                0.00      0.00  -1396.29

     ewald   stress (kbar) -23381.68      0.00      0.00
                                0.00 -23381.68      0.00
                                0.00      0.00 -23381.68

     hubbard stress (kbar)      0.00      0.00      0.00
                                0.00      0.00      0.00
                                0.00      0.00      0.00

     london  stress (kbar)      0.00      0.00      0.00
                                0.00      0.00      0.00
                                0.00      0.00      0.00

     DFT-D3  stress (kbar)      0.00      0.00      0.00
                                0.00      0.00      0.00
                                0.00      0.00      0.00

     XDM     stress (kbar)      0.00      0.00      0.00
                                0.00      0.00      0.00
[...]
                  (     0          1         -1      )
                  (     0          1          0      )

 cart.    s(48) = (  0.0000000  0.0000000  1.0000000 )
                  ( -1.0000000  0.0000000  0.0000000 )
                  (  0.0000000  1.0000000  0.0000000 )


     point group O_h (m-3m) 
     there are 10 classes
     the character table:

       E     8C3   3C2   6C4   6C2'  i     8S6   3s_h  6S4   6s_d 
A_1g   1.00  1.00  1.00  1.00  1.00  1.00  1.00  1.00  1.00  1.00
A_2g   1.00  1.00  1.00 -1.00 -1.00  1.00  1.00  1.00 -1.00 -1.00
E_g    2.00 -1.00  2.00  0.00  0.00  2.00 -1.00  2.00  0.00  0.00
T_1g   3.00  0.00 -1.00  1.00 -1.00  3.00  0.00 -1.00  1.00 -1.00
T_2g   3.00  0.00 -1.00 -1.00  1.00  3.00  0.00 -1.00 -1.00  1.00
A_1u   1.00  1.00  1.00  1.00  1.00 -1.00 -1.00 -1.00 -1.00 -1.00
A_2u   1.00  1.00  1.00 -1.00 -1.00 -1.00 -1.00 -1.00  1.00  1.00
E_u    2.00 -1.00  2.00  0.00  0.00 -2.00  1.00 -2.00  0.00  0.00
T_1u   3.00  0.00 -1.00  1.00 -1.00 -3.00  0.00  1.00 -1.00  1.00
T_2u   3.00  0.00 -1.00 -1.00  1.00 -3.00  0.00  1.00  1.00 -1.00

     the symmetry operations in each class and the name of the first element:

     E        1
          identity                                               
     8C3     17   19   20   18   24   21   22   23
          120 deg rotation - cart. axis [-1,-1,-1]               
     3C2      2    4    3
          180 deg rotation - cart. axis [0,0,1]                  
     6C4      7    8   15   16   12   11
           90 deg rotation - cart. axis [0,0,-1]                 
     6C2'     5    6   14   13   10    9
          180 deg rotation - cart. axis [1,1,0]                  
     i       25
          inversion                                              
     8S6     41   43   44   42   48   45   46   47
          inv. 120 deg rotation - cart. axis [-1,-1,-1]          
     3s_h    26   28   27
          inv. 180 deg rotation - cart. axis [0,0,1]             
     6S4     31   32   39   40   36   35
          inv.  90 deg rotation - cart. axis [0,0,-1]            
     6s_d    29   30   38   37   34   33
          inv. 180 deg rotation - cart. axis [1,1,0]             

   Cartesian axes

     site n.     atom                  positions (alat units)
         1           Ca  tau(   1) = (   0.0000000   0.0000000   0.0000000  )
         2           O   tau(   2) = (  -0.4908137   0.4908137   0.4908137  )

   Crystallographic axes

     site n.     atom                  positions (cryst. coord.)
         1           Ca  tau(   1) = (  0.0000000  0.0000000  0.0000000  )
         2           O   tau(   2) = (  0.5000000  0.5000000  0.5000000  )

     number of k points=     8  gaussian smearing, width (Ry)=  0.0100
                       cart. coord. in units 2pi/alat
        k(    1) = (   0.0000000   0.0000000   0.0000000), wk =   0.0312500
        k(    2) = (  -0.2546791   0.2546791  -0.2546791), wk =   0.2500000
        k(    3) = (   0.5093582  -0.5093582   0.5093582), wk =   0.1250000
        k(    4) = (   0.0000000   0.5093582   0.0000000), wk =   0.1875000
        k(    5) = (   0.7640374  -0.2546791   0.7640374), wk =   0.7500000
        k(    6) = (   0.5093582   0.0000000   0.5093582), wk =   0.3750000
        k(    7) = (   0.0000000  -1.0187165   0.0000000), wk =   0.0937500
        k(    8) = (  -0.5093582  -1.0187165   0.0000000), wk =   0.1875000

                       cryst. coord.
        k(    1) = (   0.0000000   0.0000000   0.0000000), wk =   0.0312500
        k(    2) = (   0.0000000   0.0000000   0.2500000), wk =   0.2500000
        k(    3) = (   0.0000000   0.0000000  -0.5000000), wk =   0.1250000
        k(    4) = (  -0.0000000   0.2500000   0.2500000), wk =   0.1875000
        k(    5) = (   0.0000000   0.2500000  -0.5000000), wk =   0.7500000
        k(    6) = (   0.0000000   0.2500000  -0.2500000), wk =   0.3750000
        k(    7) = (   0.0000000  -0.5000000  -0.5000000), wk =   0.0937500
        k(    8) = (   0.2500000  -0.5000000  -0.2500000), wk =   0.1875000

     Dense  grid:    16625 G-vectors     FFT dimensions: (  36,  36,  36)

     Smooth grid:     4957 G-vectors     FFT dimensions: (  24,  24,  24)

     Dynamical RAM for                 wfc:       0.01 MB

     Dynamical RAM for     wfc (w. buffer):       0.13 MB

     Dynamical RAM for           str. fact:       0.06 MB

     Dynamical RAM for           local pot:       0.03 MB

     Dynamical RAM for          nlocal pot:       0.03 MB

     Dynamical RAM for                qrad:       8.24 MB

     Dynamical RAM for          rho,v,vnew:       0.24 MB

     Dynamical RAM for               rhoin:       0.08 MB

     Dynamical RAM for            rho*nmix:       0.51 MB

     Dynamical RAM for           G-vectors:       0.12 MB

     Dynamical RAM for          h,s,v(r/c):       0.11 MB

     Dynamical RAM for          <psi|beta>:       0.00 MB

     Dynamical RAM for                 psi:       0.06 MB

     Dynamical RAM for                hpsi:       0.06 MB

     Dynamical RAM for                spsi:       0.06 MB

     Dynamical RAM for      wfcinit/wfcrot:       0.04 MB

     Dynamical RAM for           addusdens:       5.93 MB

     Dynamical RAM for          addusforce:       6.05 MB

     Dynamical RAM for         addusstress:       6.38 MB

     Estimated static dynamical RAM per process >       9.79 MB

     Estimated max dynamical RAM per process >      16.16 MB

     Estimated total dynamical RAM >     129.31 MB

     Check: negative core charge=   -0.000004

     Initial potential from superposition of free atoms

     starting charge   15.99454, renormalised to   16.00000

     negative rho (up, down):  1.955E-04 0.000E+00
     Starting wfcs are   14 randomized atomic wfcs

     total cpu time spent up to now is       13.3 secs

     Self-consistent Calculation

     iteration #  1     ecut=    35.00 Ry     beta= 0.40
     Davidson diagonalization with overlap
     ethr =  1.00E-06,  avg # of iterations =  8.6

     negative rho (up, down):  2.016E-04 0.000E+00

     total cpu time spent up to now is       13.6 secs

     total energy              =    -106.96474111 Ry
     Harris-Foulkes estimate   =    -107.20680037 Ry
     estimated scf accuracy    <       0.46505669 Ry

     iteration #  2     ecut=    35.00 Ry     beta= 0.40
     Davidson diagonalization with overlap
     ethr =  2.91E-03,  avg # of iterations =  2.8

     negative rho (up, down):  1.950E-04 0.000E+00

     total cpu time spent up to now is       13.7 secs

     total energy              =    -107.07778770 Ry
     Harris-Foulkes estimate   =    -107.10757945 Ry
     estimated scf accuracy    <       0.08003059 Ry

     iteration #  3     ecut=    35.00 Ry     beta= 0.40
     Davidson diagonalization with overlap
     ethr =  5.00E-04,  avg # of iterations =  2.8

     negative rho (up, down):  1.918E-04 0.000E+00

     total cpu time spent up to now is       13.9 secs

     total energy              =    -107.09306258 Ry
     Harris-Foulkes estimate   =    -107.09250682 Ry
     estimated scf accuracy    <       0.00608204 Ry

     iteration #  4     ecut=    35.00 Ry     beta= 0.40
     Davidson diagonalization with overlap
     ethr =  3.80E-05,  avg # of iterations =  2.8

     negative rho (up, down):  1.922E-04 0.000E+00

     total cpu time spent up to now is       14.0 secs

     total energy              =    -107.09369973 Ry
     Harris-Foulkes estimate   =    -107.09372814 Ry
     estimated scf accuracy    <       0.00007561 Ry

     iteration #  5     ecut=    35.00 Ry     beta= 0.40
     Davidson diagonalization with overlap
     ethr =  4.73E-07,  avg # of iterations =  3.1

     negative rho (up, down):  1.925E-04 0.000E+00

     total cpu time spent up to now is       14.2 secs

     total energy              =    -107.09373795 Ry
     Harris-Foulkes estimate   =    -107.09372570 Ry
     estimated scf accuracy    <       0.00001038 Ry

     iteration #  6     ecut=    35.00 Ry     beta= 0.40
     Davidson diagonalization with overlap
     ethr =  6.49E-08,  avg # of iterations =  2.9

     negative rho (up, down):  1.925E-04 0.000E+00

     total cpu time spent up to now is       14.3 secs

     total energy              =    -107.09374102 Ry
     Harris-Foulkes estimate   =    -107.09374328 Ry
     estimated scf accuracy    <       0.00000664 Ry

     iteration #  7     ecut=    35.00 Ry     beta= 0.40
     Davidson diagonalization with overlap
     ethr =  4.15E-08,  avg # of iterations =  2.4

     negative rho (up, down):  1.924E-04 0.000E+00

     total cpu time spent up to now is       14.5 secs

     total energy              =    -107.09374277 Ry
     Harris-Foulkes estimate   =    -107.09374255 Ry
     estimated scf accuracy    <       0.00000026 Ry

     iteration #  8     ecut=    35.00 Ry     beta= 0.40
     Davidson diagonalization with overlap
     ethr =  1.64E-09,  avg # of iterations =  2.6

     negative rho (up, down):  1.924E-04 0.000E+00

     total cpu time spent up to now is       14.6 secs

     total energy              =    -107.09374290 Ry
     Harris-Foulkes estimate   =    -107.09374284 Ry
     estimated scf accuracy    <       0.00000011 Ry

     iteration #  9     ecut=    35.00 Ry     beta= 0.40
     Davidson diagonalization with overlap
     ethr =  6.99E-10,  avg # of iterations =  2.3

     negative rho (up, down):  1.923E-04 0.000E+00

     total cpu time spent up to now is       14.7 secs

     End of self-consistent calculation

          k = 0.0000 0.0000 0.0000 (   609 PWs)   bands (ev):

   -28.9864  -9.7037  -9.7037  -9.7037  -7.1848   8.4474   8.4474   8.4474
    13.6401  14.8102  14.8102  14.8102

     occupation numbers 
     1.0000   1.0000   1.0000   1.0000   1.0000   1.0000   1.0000   1.0000
     0.0000   0.0000   0.0000   0.0000

          k =-0.2547 0.2547-0.2547 (   610 PWs)   bands (ev):

   -28.9215 -10.5051  -9.7345  -9.7345  -6.3589   6.8513   7.7255   7.7255
    14.8721  15.8165  15.8345  15.8345

     occupation numbers 
     1.0000   1.0000   1.0000   1.0000   1.0000   1.0000   1.0000   1.0000
     0.0000   0.0000   0.0000   0.0000

          k = 0.5094-0.5094 0.5094 (   610 PWs)   bands (ev):

   -28.8555 -11.0772  -9.7647  -9.7647  -5.7544   5.6837   7.1407   7.1407
    15.7718  17.1088  17.1088  17.3733

     occupation numbers 
     1.0000   1.0000   1.0000   1.0000   1.0000   1.0000   1.0000   1.0000
     0.0000   0.0000   0.0000   0.0000

          k = 0.0000 0.5094 0.0000 (   632 PWs)   bands (ev):

   -28.9012 -10.3590  -9.8402  -9.8402  -6.5380   6.6845   8.1432   8.1432
    13.1904  15.5108  16.7862  16.7862

     occupation numbers 
     1.0000   1.0000   1.0000   1.0000   1.0000   1.0000   1.0000   1.0000
     0.0000   0.0000   0.0000   0.0000

          k = 0.7640-0.2547 0.7640 (   620 PWs)   bands (ev):

   -28.8365 -10.6785 -10.0124  -9.8717  -6.3003   6.6061   7.3175   7.5972
    13.9018  16.6408  17.6519  17.7077

     occupation numbers 
     1.0000   1.0000   1.0000   1.0000   1.0000   1.0000   1.0000   1.0000
     0.0000   0.0000   0.0000   0.0000

          k = 0.5094 0.0000 0.5094 (   624 PWs)   bands (ev):

   -28.8572 -10.7223 -10.0236  -9.7669  -6.0937   6.2791   7.2476   7.5863
    15.1304  16.0398  16.5327  17.1958

     occupation numbers 
     1.0000   1.0000   1.0000   1.0000   1.0000   1.0000   1.0000   1.0000
     0.0000   0.0000   0.0000   0.0000

          k = 0.0000-1.0187 0.0000 (   636 PWs)   bands (ev):

   -28.8173 -10.4251  -9.9759  -9.9759  -6.9552   7.1721   8.0856   8.0856
    12.0723  16.9138  17.6528  18.3548

     occupation numbers 
     1.0000   1.0000   1.0000   1.0000   1.0000   1.0000   1.0000   1.0000
     0.0000   0.0000   0.0000   0.0000

          k =-0.5094-1.0187 0.0000 (   616 PWs)   bands (ev):

   -28.8158 -10.2504 -10.2037 -10.2037  -6.4521   7.0775   7.3905   7.3905
    14.9355  14.9355  17.2249  18.3622

     occupation numbers 
     1.0000   1.0000   1.0000   1.0000   1.0000   1.0000   1.0000   1.0000
     0.0000   0.0000   0.0000   0.0000

     the Fermi energy is     9.6544 ev

!    total energy              =    -107.09374297 Ry
     Harris-Foulkes estimate   =    -107.09374292 Ry
     estimated scf accuracy    <          2.9E-09 Ry

     The total energy is the sum of the following terms:

     one-electron contribution =     -23.46150513 Ry
     hartree contribution      =      20.08795855 Ry
     xc contribution           =     -19.14570321 Ry
     ewald contribution        =     -84.57449318 Ry
     smearing contrib. (-TS)   =      -0.00000000 Ry

     convergence has been achieved in   9 iterations

     negative rho (up, down):  1.923E-04 0.000E+00

     Forces acting on atoms (cartesian axes, Ry/au):

     atom    1 type  1   force =     0.00000000    0.00000000    0.00000000
     atom    2 type  2   force =     0.00000000    0.00000000    0.00000000
     The non-local contrib.  to forces
     atom    1 type  1   force =     0.00000000    0.00000000    0.00000000
     atom    2 type  2   force =     0.00000000    0.00000000    0.00000000
     The ionic contribution  to forces
     atom    1 type  1   force =     0.00000000   -0.00000000   -0.00000000
     atom    2 type  2   force =    -0.00000000    0.00000000    0.00000000
     The local contribution  to forces
     atom    1 type  1   force =    -0.00000000    0.00000000   -0.00000000
     atom    2 type  2   force =    -0.00000000    0.00000000    0.00000000
     The core correction contribution to forces
     atom    1 type  1   force =     0.00000000    0.00000000    0.00000000
     atom    2 type  2   force =     0.00000000    0.00000000    0.00000000
     The Hubbard contrib.    to forces
     atom    1 type  1   force =     0.00000000    0.00000000    0.00000000
     atom    2 type  2   force =     0.00000000    0.00000000    0.00000000
     The SCF correction term to forces
     atom    1 type  1   force =    -0.00000000    0.00000000    0.00000000
     atom    2 type  2   force =     0.00000000   -0.00000000   -0.00000000

     Total force =     0.000000     Total SCF correction =     0.000000


     Computing stress (Cartesian axis) and pressure


     negative rho (up, down):  1.923E-04 0.000E+00
          total   stress  (Ry/bohr**3)                   (kbar)     P=   82.33
   0.00055966  -0.00000000  -0.00000000         82.33     -0.00     -0.00
  -0.00000000   0.00055966   0.00000000         -0.00     82.33      0.00
  -0.00000000   0.00000000   0.00055966         -0.00      0.00     82.33

     kinetic stress (kbar)  14762.86      0.00      0.00
                                0.00  14762.86     -0.00
                                0.00     -0.00  14762.86

     local   stress (kbar)  -4452.53      0.00     -0.00
                                0.00  -4452.53     -0.00
                               -0.00     -0.00  -4452.53

     nonloc. stress (kbar)  12550.33      0.00      0.00
                                0.00  12550.33     -0.00
                                0.00     -0.00  12550.33

     hartree stress (kbar)   5553.57      0.00      0.00
                                0.00   5553.57     -0.00
                                0.00     -0.00   5553.57

     exc-cor stress (kbar)  -3553.94     -0.00      0.00
                               -0.00  -3553.94     -0.00
                                0.00     -0.00  -3553.94

     corecor stress (kbar)  -1396.27     -0.00      0.00
                               -0.00  -1396.27     -0.00
                                0.00     -0.00  -1396.27

     ewald   stress (kbar) -23381.68     -0.00     -0.00
                               -0.00 -23381.68     -0.00
                               -0.00     -0.00 -23381.68

     hubbard stress (kbar)      0.00      0.00      0.00
                                0.00      0.00      0.00
                                0.00      0.00      0.00

     london  stress (kbar)      0.00      0.00      0.00
                                0.00      0.00      0.00
                                0.00      0.00      0.00

     DFT-D3  stress (kbar)      0.00      0.00      0.00
                                0.00      0.00      0.00
                                0.00      0.00      0.00

     XDM     stress (kbar)      0.00      0.00      0.00
                                0.00      0.00      0.00
                                0.00      0.00      0.00

     dft-nl  stress (kbar)      0.00      0.00      0.00
                                0.00      0.00      0.00
                                0.00      0.00      0.00

     TS-vdW  stress (kbar)      0.00      0.00      0.00
                                0.00      0.00      0.00
                                0.00      0.00      0.00



     Writing output data file CaO.save/
 
     init_run     :      0.54s CPU      0.62s WALL (       2 calls)
     electrons    :      5.91s CPU      8.58s WALL (       5 calls)
     update_pot   :      0.59s CPU      0.62s WALL (       3 calls)
     forces       :      0.48s CPU      0.51s WALL (       5 calls)
     stress       :      1.79s CPU      1.80s WALL (       5 calls)

     Called by init_run:
     wfcinit      :      0.05s CPU      0.09s WALL (       2 calls)
     wfcinit:atom :      0.00s CPU      0.00s WALL (      16 calls)
     wfcinit:wfcr :      0.05s CPU      0.08s WALL (      16 calls)
     potinit      :      0.09s CPU      0.09s WALL (       2 calls)
     hinit0       :      0.36s CPU      0.38s WALL (       2 calls)

     Called by electrons:
     c_bands      :      3.97s CPU      5.88s WALL (      56 calls)
     sum_band     :      1.10s CPU      1.38s WALL (      56 calls)
     v_of_rho     :      0.44s CPU      0.46s WALL (      61 calls)
     v_h          :      0.05s CPU      0.02s WALL (      61 calls)
     v_xc         :      0.44s CPU      0.51s WALL (      71 calls)
     newd         :      0.35s CPU      0.45s WALL (      61 calls)
     mix_rho      :      0.01s CPU      0.06s WALL (      56 calls)

     Called by c_bands:
     init_us_2    :      0.09s CPU      0.07s WALL (     992 calls)
     cegterg      :      3.83s CPU      5.33s WALL (     448 calls)

     Called by sum_band:
     sum_band:bec :      0.00s CPU      0.01s WALL (     448 calls)
     addusdens    :      0.38s CPU      0.43s WALL (      56 calls)

     Called by *egterg:
     h_psi        :      2.99s CPU      4.17s WALL (    1642 calls)
     s_psi        :      0.03s CPU      0.05s WALL (    1642 calls)
     g_psi        :      0.01s CPU      0.03s WALL (    1178 calls)
     cdiaghg      :      0.42s CPU      0.50s WALL (    1602 calls)
     cegterg:over :      0.08s CPU      0.19s WALL (    1178 calls)
     cegterg:upda :      0.06s CPU      0.04s WALL (    1178 calls)
     cegterg:last :      0.04s CPU      0.02s WALL (     472 calls)

     Called by h_psi:
     h_psi:pot    :      2.94s CPU      4.12s WALL (    1642 calls)
     h_psi:calbec :      0.11s CPU      0.18s WALL (    1642 calls)
     vloc_psi     :      2.72s CPU      3.79s WALL (    1642 calls)
     add_vuspsi   :      0.06s CPU      0.06s WALL (    1642 calls)

     General routines
     calbec       :      0.13s CPU      0.21s WALL (    2290 calls)
     fft          :      0.23s CPU      0.33s WALL (     911 calls)
     ffts         :      0.05s CPU      0.02s WALL (     117 calls)
     fftw         :      2.90s CPU      3.94s WALL (   33462 calls)
     interpolate  :      0.06s CPU      0.03s WALL (      61 calls)
 
     Parallel routines
     fft_scatt_xy :      0.43s CPU      0.58s WALL (   34490 calls)
     fft_scatt_yz :      1.25s CPU      1.68s WALL (   34490 calls)
 
     PWSCF        :     11.36s CPU     16.50s WALL

 
   This run was terminated on:   6: 2: 2  13Mar2020            

=------------------------------------------------------------------------------=
   JOB DONE.
=------------------------------------------------------------------------------=
