
     Program PWSCF v.6.3MaX starts on  1Apr2021 at 17:13:28 

     This program is part of the open-source Quantum ESPRESSO suite
     for quantum simulation of materials; please cite
         "P. Giannozzi et al., J. Phys.:Condens. Matter 21 395502 (2009);
         "P. Giannozzi et al., J. Phys.:Condens. Matter 29 465901 (2017);
          URL http://www.quantum-espresso.org", 
     in publications or presentations arising from this work. More details at
     http://www.quantum-espresso.org/quote

     Serial version
     Waiting for input...
     Reading input from standard input

     Current dimensions of program PWSCF are:
     Max number of different atomic species (ntypx) = 10
     Max number of k-points (npk) =  40000
     Max angular momentum in pseudopotentials (lmaxx) =  3
 
     G-vector sticks info
     --------------------
     sticks:   dense  smooth     PW     G-vecs:    dense   smooth      PW
     Sum        1159     511    163                26469     7799    1411
 


     bravais-lattice index     =            2
     lattice parameter (alat)  =      10.3935  a.u.
     unit-cell volume          =     280.6885 (a.u.)^3
     number of atoms/cell      =            1
     number of atomic types    =            1
     number of electrons       =        10.00
     number of Kohn-Sham states=            9
     kinetic-energy cutoff     =      35.0000  Ry
     charge density cutoff     =     315.0000  Ry
     convergence threshold     =      1.0E-06
     mixing beta               =       0.4000
     number of iterations used =            8  plain     mixing
     Exchange-correlation      = SLA PW PBE PBE ( 1  4  3  4 0 0)
     nstep                     =          100


     celldm(1)=  10.393494  celldm(2)=   0.000000  celldm(3)=   0.000000
     celldm(4)=   0.000000  celldm(5)=   0.000000  celldm(6)=   0.000000

     crystal axes: (cart. coord. in units of alat)
               a(1) = (  -0.500000   0.000000   0.500000 )  
               a(2) = (   0.000000   0.500000   0.500000 )  
               a(3) = (  -0.500000   0.500000   0.000000 )  

     reciprocal axes: (cart. coord. in units 2 pi/alat)
               b(1) = ( -1.000000 -1.000000  1.000000 )  
               b(2) = (  1.000000  1.000000  1.000000 )  
               b(3) = ( -1.000000  1.000000 -1.000000 )  


     PseudoPot. # 1 for Ca read from file:
     ../pseudo/Ca.pbe-nsp-van.UPF
     MD5 check sum: cdab9c70410076c6adf7f3c9fd3601e0
     Pseudo is Ultrasoft + core correction, Zval = 10.0
     Generated by new atomic code, or converted to UPF format
     Using radial grid of  845 points,  6 beta functions with: 
                l(1) =   0
                l(2) =   0
                l(3) =   1
                l(4) =   1
                l(5) =   2
                l(6) =   2
     Q(r) pseudized with  6 coefficients,  rinner =    1.200   1.200   1.200
                                                       1.200   1.200

     atomic species   valence    mass     pseudopotential
        Ca            10.00    40.07800     Ca( 1.00)

     48 Sym. Ops., with inversion, found


                                    s                        frac. trans.

      isym =  1     identity                                     

 cryst.   s( 1) = (     1          0          0      )
                  (     0          1          0      )
                  (     0          0          1      )

 cart.    s( 1) = (  1.0000000  0.0000000  0.0000000 )
                  (  0.0000000  1.0000000  0.0000000 )
                  (  0.0000000  0.0000000  1.0000000 )


      isym =  2     180 deg rotation - cart. axis [0,0,1]        

 cryst.   s( 2) = (     0          1         -1      )
                  (     1          0         -1      )
                  (     0          0         -1      )

 cart.    s( 2) = ( -1.0000000  0.0000000  0.0000000 )
                  (  0.0000000 -1.0000000  0.0000000 )
                  (  0.0000000  0.0000000  1.0000000 )


      isym =  3     180 deg rotation - cart. axis [0,1,0]        

 cryst.   s( 3) = (    -1          0          0      )
                  (    -1          0          1      )
                  (    -1          1          0      )

 cart.    s( 3) = ( -1.0000000  0.0000000  0.0000000 )
                  (  0.0000000  1.0000000  0.0000000 )
                  (  0.0000000  0.0000000 -1.0000000 )


      isym =  4     180 deg rotation - cart. axis [1,0,0]        

 cryst.   s( 4) = (     0         -1          1      )
                  (     0         -1          0      )
                  (     1         -1          0      )

 cart.    s( 4) = (  1.0000000  0.0000000  0.0000000 )
                  (  0.0000000 -1.0000000  0.0000000 )
                  (  0.0000000  0.0000000 -1.0000000 )


      isym =  5     180 deg rotation - cart. axis [1,1,0]        

 cryst.   s( 5) = (     0         -1          0      )
                  (    -1          0          0      )
                  (     0          0         -1      )

 cart.    s( 5) = (  0.0000000  1.0000000  0.0000000 )
                  (  1.0000000  0.0000000  0.0000000 )
                  (  0.0000000  0.0000000 -1.0000000 )


      isym =  6     180 deg rotation - cart. axis [1,-1,0]       

 cryst.   s( 6) = (    -1          0          1      )
                  (     0         -1          1      )
                  (     0          0          1      )

 cart.    s( 6) = (  0.0000000 -1.0000000  0.0000000 )
                  ( -1.0000000  0.0000000  0.0000000 )
                  (  0.0000000  0.0000000 -1.0000000 )


      isym =  7      90 deg rotation - cart. axis [0,0,-1]       

 cryst.   s( 7) = (     0          1          0      )
                  (     0          1         -1      )
                  (    -1          1          0      )

 cart.    s( 7) = (  0.0000000  1.0000000  0.0000000 )
                  ( -1.0000000  0.0000000  0.0000000 )
                  (  0.0000000  0.0000000  1.0000000 )


      isym =  8      90 deg rotation - cart. axis [0,0,1]        

 cryst.   s( 8) = (     1          0         -1      )
                  (     1          0          0      )
                  (     1         -1          0      )

 cart.    s( 8) = (  0.0000000 -1.0000000  0.0000000 )
                  (  1.0000000  0.0000000  0.0000000 )
                  (  0.0000000  0.0000000  1.0000000 )


      isym =  9     180 deg rotation - cart. axis [1,0,1]        

 cryst.   s( 9) = (    -1          0          0      )
                  (     0          0         -1      )
                  (     0         -1          0      )

 cart.    s( 9) = (  0.0000000  0.0000000  1.0000000 )
                  (  0.0000000 -1.0000000  0.0000000 )
                  (  1.0000000  0.0000000  0.0000000 )


      isym = 10     180 deg rotation - cart. axis [-1,0,1]       

 cryst.   s(10) = (     1          0          0      )
                  (     1         -1          0      )
                  (     1          0         -1      )

 cart.    s(10) = (  0.0000000  0.0000000 -1.0000000 )
                  (  0.0000000 -1.0000000  0.0000000 )
                  ( -1.0000000  0.0000000  0.0000000 )


      isym = 11      90 deg rotation - cart. axis [0,1,0]        

 cryst.   s(11) = (     0          1         -1      )
                  (    -1          1          0      )
                  (     0          1          0      )

 cart.    s(11) = (  0.0000000  0.0000000  1.0000000 )
                  (  0.0000000  1.0000000  0.0000000 )
                  ( -1.0000000  0.0000000  0.0000000 )


      isym = 12      90 deg rotation - cart. axis [0,-1,0]       

 cryst.   s(12) = (     0         -1          1      )
                  (     0          0          1      )
                  (    -1          0          1      )

 cart.    s(12) = (  0.0000000  0.0000000 -1.0000000 )
                  (  0.0000000  1.0000000  0.0000000 )
                  (  1.0000000  0.0000000  0.0000000 )


      isym = 13     180 deg rotation - cart. axis [0,1,1]        

 cryst.   s(13) = (    -1          1          0      )
                  (     0          1          0      )
                  (     0          1         -1      )

 cart.    s(13) = ( -1.0000000  0.0000000  0.0000000 )
                  (  0.0000000  0.0000000  1.0000000 )
                  (  0.0000000  1.0000000  0.0000000 )


      isym = 14     180 deg rotation - cart. axis [0,1,-1]       

 cryst.   s(14) = (     0          0         -1      )
                  (     0         -1          0      )
                  (    -1          0          0      )

 cart.    s(14) = ( -1.0000000  0.0000000  0.0000000 )
                  (  0.0000000  0.0000000 -1.0000000 )
                  (  0.0000000 -1.0000000  0.0000000 )


      isym = 15      90 deg rotation - cart. axis [-1,0,0]       

 cryst.   s(15) = (     0          0          1      )
                  (    -1          0          1      )
                  (     0         -1          1      )

 cart.    s(15) = (  1.0000000  0.0000000  0.0000000 )
                  (  0.0000000  0.0000000  1.0000000 )
                  (  0.0000000 -1.0000000  0.0000000 )


      isym = 16      90 deg rotation - cart. axis [1,0,0]        

 cryst.   s(16) = (     1         -1          0      )
                  (     1          0         -1      )
                  (     1          0          0      )

 cart.    s(16) = (  1.0000000  0.0000000  0.0000000 )
                  (  0.0000000  0.0000000 -1.0000000 )
                  (  0.0000000  1.0000000  0.0000000 )


      isym = 17     120 deg rotation - cart. axis [-1,-1,-1]     

 cryst.   s(17) = (    -1          0          1      )
                  (    -1          1          0      )
                  (    -1          0          0      )

 cart.    s(17) = (  0.0000000  1.0000000  0.0000000 )
                  (  0.0000000  0.0000000  1.0000000 )
                  (  1.0000000  0.0000000  0.0000000 )


      isym = 18     120 deg rotation - cart. axis [-1,1,1]       

 cryst.   s(18) = (     0          1          0      )
                  (     0          0          1      )
                  (     1          0          0      )

 cart.    s(18) = (  0.0000000 -1.0000000  0.0000000 )
                  (  0.0000000  0.0000000  1.0000000 )
                  ( -1.0000000  0.0000000  0.0000000 )


      isym = 19     120 deg rotation - cart. axis [1,1,-1]       

 cryst.   s(19) = (     1          0         -1      )
                  (     0          0         -1      )
                  (     0          1         -1      )

 cart.    s(19) = (  0.0000000  1.0000000  0.0000000 )
                  (  0.0000000  0.0000000 -1.0000000 )
                  ( -1.0000000  0.0000000  0.0000000 )


      isym = 20     120 deg rotation - cart. axis [1,-1,1]       

 cryst.   s(20) = (     0         -1          0      )
                  (     1         -1          0      )
                  (     0         -1          1      )

 cart.    s(20) = (  0.0000000 -1.0000000  0.0000000 )
                  (  0.0000000  0.0000000 -1.0000000 )
                  (  1.0000000  0.0000000  0.0000000 )


      isym = 21     120 deg rotation - cart. axis [1,1,1]        

 cryst.   s(21) = (     0          0         -1      )
                  (     0          1         -1      )
                  (     1          0         -1      )

 cart.    s(21) = (  0.0000000  0.0000000  1.0000000 )
                  (  1.0000000  0.0000000  0.0000000 )
                  (  0.0000000  1.0000000  0.0000000 )


      isym = 22     120 deg rotation - cart. axis [-1,1,-1]      

 cryst.   s(22) = (    -1          1          0      )
                  (    -1          0          0      )
                  (    -1          0          1      )

 cart.    s(22) = (  0.0000000  0.0000000  1.0000000 )
                  ( -1.0000000  0.0000000  0.0000000 )
                  (  0.0000000 -1.0000000  0.0000000 )


      isym = 23     120 deg rotation - cart. axis [1,-1,-1]      

 cryst.   s(23) = (     0          0          1      )
                  (     1          0          0      )
                  (     0          1          0      )

 cart.    s(23) = (  0.0000000  0.0000000 -1.0000000 )
                  ( -1.0000000  0.0000000  0.0000000 )
                  (  0.0000000  1.0000000  0.0000000 )


      isym = 24     120 deg rotation - cart. axis [-1,-1,1]      

 cryst.   s(24) = (     1         -1          0      )
                  (     0         -1          1      )
                  (     0         -1          0      )

 cart.    s(24) = (  0.0000000  0.0000000 -1.0000000 )
                  (  1.0000000  0.0000000  0.0000000 )
                  (  0.0000000 -1.0000000  0.0000000 )


      isym = 25     inversion                                    

 cryst.   s(25) = (    -1          0          0      )
                  (     0         -1          0      )
                  (     0          0         -1      )

 cart.    s(25) = ( -1.0000000  0.0000000  0.0000000 )
                  (  0.0000000 -1.0000000  0.0000000 )
                  (  0.0000000  0.0000000 -1.0000000 )


      isym = 26     inv. 180 deg rotation - cart. axis [0,0,1]   

 cryst.   s(26) = (     0         -1          1      )
                  (    -1          0          1      )
                  (     0          0          1      )

 cart.    s(26) = (  1.0000000  0.0000000  0.0000000 )
                  (  0.0000000  1.0000000  0.0000000 )
                  (  0.0000000  0.0000000 -1.0000000 )


      isym = 27     inv. 180 deg rotation - cart. axis [0,1,0]   

 cryst.   s(27) = (     1          0          0      )
                  (     1          0         -1      )
                  (     1         -1          0      )

 cart.    s(27) = (  1.0000000  0.0000000  0.0000000 )
                  (  0.0000000 -1.0000000  0.0000000 )
                  (  0.0000000  0.0000000  1.0000000 )


      isym = 28     inv. 180 deg rotation - cart. axis [1,0,0]   

 cryst.   s(28) = (     0          1         -1      )
                  (     0          1          0      )
                  (    -1          1          0      )

 cart.    s(28) = ( -1.0000000  0.0000000  0.0000000 )
                  (  0.0000000  1.0000000  0.0000000 )
                  (  0.0000000  0.0000000  1.0000000 )


      isym = 29     inv. 180 deg rotation - cart. axis [1,1,0]   

 cryst.   s(29) = (     0          1          0      )
                  (     1          0          0      )
                  (     0          0          1      )

 cart.    s(29) = (  0.0000000 -1.0000000  0.0000000 )
                  ( -1.0000000  0.0000000  0.0000000 )
                  (  0.0000000  0.0000000  1.0000000 )


      isym = 30     inv. 180 deg rotation - cart. axis [1,-1,0]  

 cryst.   s(30) = (     1          0         -1      )
                  (     0          1         -1      )
                  (     0          0         -1      )

 cart.    s(30) = (  0.0000000  1.0000000  0.0000000 )
                  (  1.0000000  0.0000000  0.0000000 )
                  (  0.0000000  0.0000000  1.0000000 )


      isym = 31     inv.  90 deg rotation - cart. axis [0,0,-1]  

 cryst.   s(31) = (     0         -1          0      )
                  (     0         -1          1      )
                  (     1         -1          0      )

 cart.    s(31) = (  0.0000000 -1.0000000  0.0000000 )
                  (  1.0000000  0.0000000  0.0000000 )
                  (  0.0000000  0.0000000 -1.0000000 )


      isym = 32     inv.  90 deg rotation - cart. axis [0,0,1]   

 cryst.   s(32) = (    -1          0          1      )
                  (    -1          0          0      )
                  (    -1          1          0      )

 cart.    s(32) = (  0.0000000  1.0000000  0.0000000 )
                  ( -1.0000000  0.0000000  0.0000000 )
                  (  0.0000000  0.0000000 -1.0000000 )


      isym = 33     inv. 180 deg rotation - cart. axis [1,0,1]   

 cryst.   s(33) = (     1          0          0      )
                  (     0          0          1      )
                  (     0          1          0      )

 cart.    s(33) = (  0.0000000  0.0000000 -1.0000000 )
                  (  0.0000000  1.0000000  0.0000000 )
                  ( -1.0000000  0.0000000  0.0000000 )


      isym = 34     inv. 180 deg rotation - cart. axis [-1,0,1]  

 cryst.   s(34) = (    -1          0          0      )
                  (    -1          1          0      )
                  (    -1          0          1      )

 cart.    s(34) = (  0.0000000  0.0000000  1.0000000 )
                  (  0.0000000  1.0000000  0.0000000 )
                  (  1.0000000  0.0000000  0.0000000 )


      isym = 35     inv.  90 deg rotation - cart. axis [0,1,0]   

 cryst.   s(35) = (     0         -1          1      )
                  (     1         -1          0      )
                  (     0         -1          0      )

 cart.    s(35) = (  0.0000000  0.0000000 -1.0000000 )
                  (  0.0000000 -1.0000000  0.0000000 )
                  (  1.0000000  0.0000000  0.0000000 )


      isym = 36     inv.  90 deg rotation - cart. axis [0,-1,0]  

 cryst.   s(36) = (     0          1         -1      )
                  (     0          0         -1      )
                  (     1          0         -1      )

 cart.    s(36) = (  0.0000000  0.0000000  1.0000000 )
                  (  0.0000000 -1.0000000  0.0000000 )
                  ( -1.0000000  0.0000000  0.0000000 )


      isym = 37     inv. 180 deg rotation - cart. axis [0,1,1]   

 cryst.   s(37) = (     1         -1          0      )
                  (     0         -1          0      )
                  (     0         -1          1      )

 cart.    s(37) = (  1.0000000  0.0000000  0.0000000 )
                  (  0.0000000  0.0000000 -1.0000000 )
                  (  0.0000000 -1.0000000  0.0000000 )


      isym = 38     inv. 180 deg rotation - cart. axis [0,1,-1]  

 cryst.   s(38) = (     0          0          1      )
                  (     0          1          0      )
                  (     1          0          0      )

 cart.    s(38) = (  1.0000000  0.0000000  0.0000000 )
                  (  0.0000000  0.0000000  1.0000000 )
                  (  0.0000000  1.0000000  0.0000000 )


      isym = 39     inv.  90 deg rotation - cart. axis [-1,0,0]  

 cryst.   s(39) = (     0          0         -1      )
                  (     1          0         -1      )
                  (     0          1         -1      )

 cart.    s(39) = ( -1.0000000  0.0000000  0.0000000 )
                  (  0.0000000  0.0000000 -1.0000000 )
                  (  0.0000000  1.0000000  0.0000000 )


      isym = 40     inv.  90 deg rotation - cart. axis [1,0,0]   

 cryst.   s(40) = (    -1          1          0      )
                  (    -1          0          1      )
                  (    -1          0          0      )

 cart.    s(40) = ( -1.0000000  0.0000000  0.0000000 )
                  (  0.0000000  0.0000000  1.0000000 )
                  (  0.0000000 -1.0000000  0.0000000 )


      isym = 41     inv. 120 deg rotation - cart. axis [-1,-1,-1]

 cryst.   s(41) = (     1          0         -1      )
                  (     1         -1          0      )
                  (     1          0          0      )

 cart.    s(41) = (  0.0000000 -1.0000000  0.0000000 )
                  (  0.0000000  0.0000000 -1.0000000 )
                  ( -1.0000000  0.0000000  0.0000000 )


      isym = 42     inv. 120 deg rotation - cart. axis [-1,1,1]  

 cryst.   s(42) = (     0         -1          0      )
                  (     0          0         -1      )
                  (    -1          0          0      )

 cart.    s(42) = (  0.0000000  1.0000000  0.0000000 )
                  (  0.0000000  0.0000000 -1.0000000 )
                  (  1.0000000  0.0000000  0.0000000 )


      isym = 43     inv. 120 deg rotation - cart. axis [1,1,-1]  

 cryst.   s(43) = (    -1          0          1      )
                  (     0          0          1      )
                  (     0         -1          1      )

 cart.    s(43) = (  0.0000000 -1.0000000  0.0000000 )
                  (  0.0000000  0.0000000  1.0000000 )
                  (  1.0000000  0.0000000  0.0000000 )


      isym = 44     inv. 120 deg rotation - cart. axis [1,-1,1]  

 cryst.   s(44) = (     0          1          0      )
                  (    -1          1          0      )
                  (     0          1         -1      )

 cart.    s(44) = (  0.0000000  1.0000000  0.0000000 )
                  (  0.0000000  0.0000000  1.0000000 )
                  ( -1.0000000  0.0000000  0.0000000 )


      isym = 45     inv. 120 deg rotation - cart. axis [1,1,1]   

 cryst.   s(45) = (     0          0          1      )
                  (     0         -1          1      )
                  (    -1          0          1      )

 cart.    s(45) = (  0.0000000  0.0000000 -1.0000000 )
                  ( -1.0000000  0.0000000  0.0000000 )
                  (  0.0000000 -1.0000000  0.0000000 )


      isym = 46     inv. 120 deg rotation - cart. axis [-1,1,-1] 

 cryst.   s(46) = (     1         -1          0      )
                  (     1          0          0      )
                  (     1          0         -1      )

 cart.    s(46) = (  0.0000000  0.0000000 -1.0000000 )
                  (  1.0000000  0.0000000  0.0000000 )
                  (  0.0000000  1.0000000  0.0000000 )


      isym = 47     inv. 120 deg rotation - cart. axis [1,-1,-1] 

 cryst.   s(47) = (     0          0         -1      )
                  (    -1          0          0      )
                  (     0         -1          0      )

 cart.    s(47) = (  0.0000000  0.0000000  1.0000000 )
                  (  1.0000000  0.0000000  0.0000000 )
                  (  0.0000000 -1.0000000  0.0000000 )


      isym = 48     inv. 120 deg rotation - cart. axis [-1,-1,1] 

 cryst.   s(48) = (    -1          1          0      )
                  (     0          1         -1      )
                  (     0          1          0      )

 cart.    s(48) = (  0.0000000  0.0000000  1.0000000 )
                  ( -1.0000000  0.0000000  0.0000000 )
                  (  0.0000000  1.0000000  0.0000000 )


     point group O_h (m-3m) 
     there are 10 classes
     the character table:

       E     8C3   3C2   6C4   6C2'  i     8S6   3s_h  6S4   6s_d 
A_1g   1.00  1.00  1.00  1.00  1.00  1.00  1.00  1.00  1.00  1.00
A_2g   1.00  1.00  1.00 -1.00 -1.00  1.00  1.00  1.00 -1.00 -1.00
E_g    2.00 -1.00  2.00  0.00  0.00  2.00 -1.00  2.00  0.00  0.00
T_1g   3.00  0.00 -1.00  1.00 -1.00  3.00  0.00 -1.00  1.00 -1.00
T_2g   3.00  0.00 -1.00 -1.00  1.00  3.00  0.00 -1.00 -1.00  1.00
A_1u   1.00  1.00  1.00  1.00  1.00 -1.00 -1.00 -1.00 -1.00 -1.00
A_2u   1.00  1.00  1.00 -1.00 -1.00 -1.00 -1.00 -1.00  1.00  1.00
E_u    2.00 -1.00  2.00  0.00  0.00 -2.00  1.00 -2.00  0.00  0.00
T_1u   3.00  0.00 -1.00  1.00 -1.00 -3.00  0.00  1.00 -1.00  1.00
T_2u   3.00  0.00 -1.00 -1.00  1.00 -3.00  0.00  1.00  1.00 -1.00

     the symmetry operations in each class and the name of the first element:

     E        1
          identity                                               
     8C3     17   19   20   18   24   21   22   23
          120 deg rotation - cart. axis [-1,-1,-1]               
     3C2      2    4    3
          180 deg rotation - cart. axis [0,0,1]                  
     6C4      7    8   15   16   12   11
           90 deg rotation - cart. axis [0,0,-1]                 
     6C2'     5    6   14   13   10    9
          180 deg rotation - cart. axis [1,1,0]                  
     i       25
          inversion                                              
     8S6     41   43   44   42   48   45   46   47
          inv. 120 deg rotation - cart. axis [-1,-1,-1]          
     3s_h    26   28   27
          inv. 180 deg rotation - cart. axis [0,0,1]             
     6S4     31   32   39   40   36   35
          inv.  90 deg rotation - cart. axis [0,0,-1]            
     6s_d    29   30   38   37   34   33
          inv. 180 deg rotation - cart. axis [1,1,0]             

   Cartesian axes

     site n.     atom                  positions (alat units)
         1           Ca  tau(   1) = (   0.0000000   0.0000000   0.0000000  )

   Crystallographic axes

     site n.     atom                  positions (cryst. coord.)
         1           Ca  tau(   1) = (  0.0000000  0.0000000  0.0000000  )

     number of k points=    16  gaussian smearing, width (Ry)=  0.0100
                       cart. coord. in units 2pi/alat
        k(    1) = (   0.0000000   0.0000000   0.0000000), wk =   0.0092593
        k(    2) = (  -0.1666667   0.1666667  -0.1666667), wk =   0.0740741
        k(    3) = (  -0.3333333   0.3333333  -0.3333333), wk =   0.0740741
        k(    4) = (   0.5000000  -0.5000000   0.5000000), wk =   0.0370370
        k(    5) = (   0.0000000   0.3333333   0.0000000), wk =   0.0555556
        k(    6) = (  -0.1666667   0.5000000  -0.1666667), wk =   0.2222222
        k(    7) = (   0.6666667  -0.3333333   0.6666667), wk =   0.2222222
        k(    8) = (   0.5000000  -0.1666667   0.5000000), wk =   0.2222222
        k(    9) = (   0.3333333   0.0000000   0.3333333), wk =   0.1111111
        k(   10) = (   0.0000000   0.6666667   0.0000000), wk =   0.0555556
        k(   11) = (   0.8333333  -0.1666667   0.8333333), wk =   0.2222222
        k(   12) = (   0.6666667  -0.0000000   0.6666667), wk =   0.1111111
        k(   13) = (   0.0000000  -1.0000000   0.0000000), wk =   0.0277778
        k(   14) = (   0.6666667  -0.3333333   1.0000000), wk =   0.2222222
        k(   15) = (   0.5000000  -0.1666667   0.8333333), wk =   0.2222222
        k(   16) = (  -0.3333333  -1.0000000   0.0000000), wk =   0.1111111

                       cryst. coord.
        k(    1) = (   0.0000000   0.0000000   0.0000000), wk =   0.0092593
        k(    2) = (   0.0000000   0.0000000   0.1666667), wk =   0.0740741
        k(    3) = (   0.0000000   0.0000000   0.3333333), wk =   0.0740741
        k(    4) = (   0.0000000   0.0000000  -0.5000000), wk =   0.0370370
        k(    5) = (   0.0000000   0.1666667   0.1666667), wk =   0.0555556
        k(    6) = (   0.0000000   0.1666667   0.3333333), wk =   0.2222222
        k(    7) = (   0.0000000   0.1666667  -0.5000000), wk =   0.2222222
        k(    8) = (   0.0000000   0.1666667  -0.3333333), wk =   0.2222222
        k(    9) = (   0.0000000   0.1666667  -0.1666667), wk =   0.1111111
        k(   10) = (   0.0000000   0.3333333   0.3333333), wk =   0.0555556
        k(   11) = (   0.0000000   0.3333333  -0.5000000), wk =   0.2222222
        k(   12) = (   0.0000000   0.3333333  -0.3333333), wk =   0.1111111
        k(   13) = (   0.0000000  -0.5000000  -0.5000000), wk =   0.0277778
        k(   14) = (   0.1666667   0.3333333  -0.5000000), wk =   0.2222222
        k(   15) = (   0.1666667   0.3333333  -0.3333333), wk =   0.2222222
        k(   16) = (   0.1666667  -0.5000000  -0.3333333), wk =   0.1111111

     Dense  grid:    26469 G-vectors     FFT dimensions: (  45,  45,  45)

     Smooth grid:     7799 G-vectors     FFT dimensions: (  27,  27,  27)

     Dynamical RAM for                 wfc:       0.13 MB

     Dynamical RAM for     wfc (w. buffer):       2.29 MB

     Dynamical RAM for           str. fact:       0.40 MB

     Dynamical RAM for           local pot:       0.00 MB

     Dynamical RAM for          nlocal pot:       0.27 MB

     Dynamical RAM for                qrad:       4.71 MB

     Dynamical RAM for          rho,v,vnew:       3.30 MB

     Dynamical RAM for               rhoin:       1.10 MB

     Dynamical RAM for            rho*nmix:       6.46 MB

     Dynamical RAM for           G-vectors:       1.57 MB

     Dynamical RAM for          h,s,v(r/c):       0.06 MB

     Dynamical RAM for          <psi|beta>:       0.00 MB

     Dynamical RAM for                 psi:       0.54 MB

     Dynamical RAM for                hpsi:       0.54 MB

     Dynamical RAM for                spsi:       0.54 MB

     Dynamical RAM for      wfcinit/wfcrot:       0.30 MB

     Dynamical RAM for           addusdens:      75.53 MB

     Dynamical RAM for          addusforce:      75.73 MB

     Dynamical RAM for         addusstress:      81.18 MB

     Estimated static dynamical RAM per process >      24.39 MB

     Estimated max dynamical RAM per process >     105.57 MB

     Check: negative/imaginary core charge=   -0.000003    0.000000

     Initial potential from superposition of free atoms
     Check: negative starting charge=   -0.000167

     starting charge    9.99454, renormalised to   10.00000

     negative rho (up, down):  1.668E-04 0.000E+00
     Starting wfcs are   10 randomized atomic wfcs

     total cpu time spent up to now is        2.0 secs

     Self-consistent Calculation

     iteration #  1     ecut=    35.00 Ry     beta= 0.40
     Davidson diagonalization with overlap
     ethr =  1.00E-02,  avg # of iterations =  2.4

     Threshold (ethr) on eigenvalues was too large:
     Diagonalizing with lowered threshold

     Davidson diagonalization with overlap
     ethr =  1.93E-05,  avg # of iterations =  4.2

     negative rho (up, down):  1.623E-04 0.000E+00

     total cpu time spent up to now is        3.2 secs

     total energy              =     -74.72927756 Ry
     Harris-Foulkes estimate   =     -74.72917013 Ry
     estimated scf accuracy    <       0.00177749 Ry

     iteration #  2     ecut=    35.00 Ry     beta= 0.40
     Davidson diagonalization with overlap
     ethr =  1.78E-05,  avg # of iterations =  1.1

     negative rho (up, down):  1.581E-04 0.000E+00

     total cpu time spent up to now is        3.8 secs

     total energy              =     -74.72947714 Ry
     Harris-Foulkes estimate   =     -74.72933002 Ry
     estimated scf accuracy    <       0.00054917 Ry

     iteration #  3     ecut=    35.00 Ry     beta= 0.40
     Davidson diagonalization with overlap
     ethr =  5.49E-06,  avg # of iterations =  2.1

     negative rho (up, down):  1.578E-04 0.000E+00

     total cpu time spent up to now is        4.3 secs

     total energy              =     -74.72952900 Ry
     Harris-Foulkes estimate   =     -74.72952792 Ry
     estimated scf accuracy    <       0.00004267 Ry

     iteration #  4     ecut=    35.00 Ry     beta= 0.40
     Davidson diagonalization with overlap
     ethr =  4.27E-07,  avg # of iterations =  2.5

     negative rho (up, down):  1.576E-04 0.000E+00

     total cpu time spent up to now is        4.9 secs

     total energy              =     -74.72953441 Ry
     Harris-Foulkes estimate   =     -74.72953524 Ry
     estimated scf accuracy    <       0.00000128 Ry

     iteration #  5     ecut=    35.00 Ry     beta= 0.40
     Davidson diagonalization with overlap
     ethr =  1.28E-08,  avg # of iterations =  3.0

     negative rho (up, down):  1.575E-04 0.000E+00

     total cpu time spent up to now is        5.4 secs

     End of self-consistent calculation

          k = 0.0000 0.0000 0.0000 (   941 PWs)   bands (ev):

   -36.8640 -17.7765 -17.7765 -17.7765   1.0773   7.4880   7.4880   7.4880
     8.5752

     occupation numbers 
     1.0000   1.0000   1.0000   1.0000   1.0000   0.0000   0.0000   0.0000
     0.0000

          k =-0.1667 0.1667-0.1667 (   968 PWs)   bands (ev):

   -36.8604 -17.8135 -17.7816 -17.7816   1.5492   7.0167   7.6225   7.6225
     8.4828

     occupation numbers 
     1.0000   1.0000   1.0000   1.0000   1.0000   0.0000   0.0000   0.0000
     0.0000

          k =-0.3333 0.3333-0.3333 (   968 PWs)   bands (ev):

   -36.8531 -17.8861 -17.7916 -17.7916   2.8233   6.0210   7.5164   7.5164
     8.8632

     occupation numbers 
     1.0000   1.0000   1.0000   1.0000   1.0000   0.0000   0.0000   0.0000
     0.0000

          k = 0.5000-0.5000 0.5000 (   978 PWs)   bands (ev):

   -36.8495 -17.9220 -17.7967 -17.7967   4.1381   4.9726   7.3697   7.3697
     9.2725

     occupation numbers 
     1.0000   1.0000   1.0000   1.0000   1.0000   0.9785   0.0000   0.0000
     0.0000

          k = 0.0000 0.3333 0.0000 (   966 PWs)   bands (ev):

   -36.8592 -17.8122 -17.7899 -17.7899   1.7036   6.9183   7.7462   7.7462
     7.9696

     occupation numbers 
     1.0000   1.0000   1.0000   1.0000   1.0000   0.0000   0.0000   0.0000
     0.0000

          k =-0.1667 0.5000-0.1667 (   981 PWs)   bands (ev):

   -36.8532 -17.8655 -17.8020 -17.8016   2.7082   6.2867   7.2335   7.8600
     8.4227

     occupation numbers 
     1.0000   1.0000   1.0000   1.0000   1.0000   0.0000   0.0000   0.0000
     0.0000

          k = 0.6667-0.3333 0.6667 (   992 PWs)   bands (ev):

   -36.8483 -17.9072 -17.8180 -17.8050   4.2116   5.2876   6.9149   7.6826
     9.2992

     occupation numbers 
     1.0000   1.0000   1.0000   1.0000   1.0000   0.1054   0.0000   0.0000
     0.0000

          k = 0.5000-0.1667 0.5000 (   975 PWs)   bands (ev):

   -36.8495 -17.8957 -17.8227 -17.7967   3.7014   5.7330   6.9011   7.6982
     8.7501

     occupation numbers 
     1.0000   1.0000   1.0000   1.0000   1.0000   0.0000   0.0000   0.0000
     0.0000

          k = 0.3333 0.0000 0.3333 (   975 PWs)   bands (ev):

   -36.8556 -17.8484 -17.8052 -17.7850   2.2924   6.5662   7.3402   7.9791
     8.0398

     occupation numbers 
     1.0000   1.0000   1.0000   1.0000   1.0000   0.0000   0.0000   0.0000
     0.0000

          k = 0.0000 0.6667 0.0000 (  1002 PWs)   bands (ev):

   -36.8496 -17.8808 -17.8165 -17.8165   3.3375   6.0528   6.7788   8.5548
     8.5548

     occupation numbers 
     1.0000   1.0000   1.0000   1.0000   1.0000   0.0000   0.0000   0.0000
     0.0000

          k = 0.8333-0.1667 0.8333 (   987 PWs)   bands (ev):

   -36.8460 -17.8988 -17.8387 -17.8215   4.4678   5.7170   6.2715   8.5390
     9.3609

     occupation numbers 
     1.0000   1.0000   1.0000   1.0000   1.0000   0.0000   0.0000   0.0000
     0.0000

          k = 0.6667-0.0000 0.6667 (   981 PWs)   bands (ev):

   -36.8459 -17.8745 -17.8737 -17.8117   4.9322   5.6966   5.9473   8.1564
     8.9773

     occupation numbers 
     1.0000   1.0000   1.0000   1.0000   0.9927   0.0000   0.0000   0.0000
     0.0000

          k = 0.0000-1.0000 0.0000 (   982 PWs)   bands (ev):

   -36.8448 -17.9135 -17.8298 -17.8298   4.6603   5.7007   6.1158   9.2656
     9.4586

     occupation numbers 
     1.0000   1.0000   1.0000   1.0000   1.0000   0.0000   0.0000   0.0000
     0.0000

          k = 0.6667-0.3333 1.0000 (   983 PWs)   bands (ev):

   -36.8484 -17.8849 -17.8356 -17.8092   3.8330   5.9964   6.4863   8.1130
     8.6647

     occupation numbers 
     1.0000   1.0000   1.0000   1.0000   1.0000   0.0000   0.0000   0.0000
     0.0000

          k = 0.5000-0.1667 0.8333 (   988 PWs)   bands (ev):

   -36.8459 -17.8894 -17.8532 -17.8174   5.1333   5.2389   6.2740   7.9239
     9.0906

     occupation numbers 
     1.0000   1.0000   1.0000   1.0000   0.6378   0.2283   0.0000   0.0000
     0.0000

          k =-0.3333-1.0000 0.0000 (   978 PWs)   bands (ev):

   -36.8447 -17.8927 -17.8508 -17.8307   5.1059   5.7496   5.9473   8.1383
     9.4604

     occupation numbers 
     1.0000   1.0000   1.0000   1.0000   0.7382   0.0000   0.0000   0.0000
     0.0000

     the Fermi energy is     5.1672 ev

!    total energy              =     -74.72953489 Ry
     Harris-Foulkes estimate   =     -74.72953493 Ry
     estimated scf accuracy    <       0.00000015 Ry

     The total energy is the sum of the following terms:

     one-electron contribution =     -38.53051182 Ry
     hartree contribution      =      19.66942799 Ry
     xc contribution           =     -11.75400587 Ry
     ewald contribution        =     -44.11280935 Ry
     smearing contrib. (-TS)   =      -0.00163584 Ry

     convergence has been achieved in   5 iterations

     negative rho (up, down):  1.575E-04 0.000E+00

     Forces acting on atoms (cartesian axes, Ry/au):

     atom    1 type  1   force =     0.00000000    0.00000000    0.00000000
     The non-local contrib.  to forces
     atom    1 type  1   force =    -0.00000000   -0.00000000   -0.00000000
     The ionic contribution  to forces
     atom    1 type  1   force =     0.00000000    0.00000000    0.00000000
     The local contribution  to forces
     atom    1 type  1   force =    -0.00000000   -0.00000000    0.00000000
     The core correction contribution to forces
     atom    1 type  1   force =    -0.00000000   -0.00000000    0.00000000
     The Hubbard contrib.    to forces
     atom    1 type  1   force =     0.00000000    0.00000000    0.00000000
     The SCF correction term to forces
     atom    1 type  1   force =     0.00000000    0.00000000   -0.00000000

     Total force =     0.000000     Total SCF correction =     0.000000


     Computing stress (Cartesian axis) and pressure


     negative rho (up, down):  1.575E-04 0.000E+00
          total   stress  (Ry/bohr**3)                   (kbar)     P=   -0.31
  -0.00000210   0.00000000   0.00000000         -0.31      0.00      0.00
   0.00000000  -0.00000210   0.00000000          0.00     -0.31      0.00
   0.00000000   0.00000000  -0.00000210          0.00      0.00     -0.31

     kinetic stress (kbar)   4390.49      0.00      0.00
                                0.00   4390.49     -0.00
                                0.00     -0.00   4390.49

     local   stress (kbar)  -3496.34      0.00      0.00
                                0.00  -3496.34     -0.00
                                0.00     -0.00  -3496.34

     nonloc. stress (kbar)   5283.88      0.00     -0.00
                                0.00   5283.88     -0.00
                                0.00     -0.00   5283.88

     hartree stress (kbar)   3436.16     -0.00      0.00
                               -0.00   3436.16      0.00
                                0.00      0.00   3436.16

     exc-cor stress (kbar)  -1026.55     -0.00      0.00
                               -0.00  -1026.55     -0.00
                                0.00     -0.00  -1026.55

     corecor stress (kbar)   -881.64      0.00      0.00
                                0.00   -881.64     -0.00
                                0.00     -0.00   -881.64

     ewald   stress (kbar)  -7706.31     -0.00     -0.00
                               -0.00  -7706.31      0.00
                               -0.00      0.00  -7706.31

     hubbard stress (kbar)      0.00      0.00      0.00
                                0.00      0.00      0.00
                                0.00      0.00      0.00

     london  stress (kbar)      0.00      0.00      0.00
                                0.00      0.00      0.00
                                0.00      0.00      0.00

     DFT-D3  stress (kbar)      0.00      0.00      0.00
                                0.00      0.00      0.00
                                0.00      0.00      0.00

     XDM     stress (kbar)      0.00      0.00      0.00
                                0.00      0.00      0.00
                                0.00      0.00      0.00

     dft-nl  stress (kbar)      0.00      0.00      0.00
                                0.00      0.00      0.00
                                0.00      0.00      0.00

     TS-vdW  stress (kbar)      0.00      0.00      0.00
                                0.00      0.00      0.00
                                0.00      0.00      0.00



     BFGS Geometry Optimization

     number of scf cycles    =   1
     number of bfgs steps    =   0

     enthalpy new            =     -74.5768883142 Ry

     new trust radius        =       0.0457321170 bohr
     new conv_thr            =       0.0000010000 Ry

     new unit-cell volume =    269.35191 a.u.^3 (    39.91383 Ang^3 )
     density =      1.66737 g/cm^3

CELL_PARAMETERS (alat= 10.39349373)
  -0.493175844  -0.000000000   0.493175844
  -0.000000000   0.493175844   0.493175844
  -0.493175844   0.493175844   0.000000000

ATOMIC_POSITIONS (crystal)
Ca       0.000000000   0.000000000   0.000000000



     Writing output data file Ca.save/
     Check: negative starting charge=   -0.000167
     NEW-OLD atomic charge density approx. for the potential

     Check: negative/imaginary core charge=   -0.000003    0.000000
     Check: negative starting charge=   -0.000160

     negative rho (up, down):  1.441E-04 0.000E+00
     extrapolated charge    9.57934, renormalised to   10.00000

     total cpu time spent up to now is        8.4 secs

     Self-consistent Calculation

     iteration #  1     ecut=    35.00 Ry     beta= 0.40
     Davidson diagonalization with overlap
     ethr =  1.00E-06,  avg # of iterations =  4.8

     negative rho (up, down):  1.302E-04 0.000E+00

     total cpu time spent up to now is        9.3 secs

     total energy              =     -74.67604621 Ry
     Harris-Foulkes estimate   =     -75.78392008 Ry
     estimated scf accuracy    <       0.03537827 Ry

     iteration #  2     ecut=    35.00 Ry     beta= 0.40
     Davidson diagonalization with overlap
     ethr =  3.54E-04,  avg # of iterations =  3.7

     negative rho (up, down):  1.380E-04 0.000E+00

     total cpu time spent up to now is       10.0 secs

     total energy              =     -74.73122248 Ry
     Harris-Foulkes estimate   =     -74.73676373 Ry
     estimated scf accuracy    <       0.01521302 Ry

     iteration #  3     ecut=    35.00 Ry     beta= 0.40
     Davidson diagonalization with overlap
     ethr =  1.52E-04,  avg # of iterations =  1.0

     negative rho (up, down):  1.419E-04 0.000E+00

     total cpu time spent up to now is       10.5 secs

     total energy              =     -74.73004299 Ry
     Harris-Foulkes estimate   =     -74.73169688 Ry
     estimated scf accuracy    <       0.00567674 Ry

     iteration #  4     ecut=    35.00 Ry     beta= 0.40
     Davidson diagonalization with overlap
     ethr =  5.68E-05,  avg # of iterations =  1.9

     negative rho (up, down):  1.487E-04 0.000E+00

     total cpu time spent up to now is       11.0 secs

     total energy              =     -74.72885857 Ry
     Harris-Foulkes estimate   =     -74.73029325 Ry
     estimated scf accuracy    <       0.00231817 Ry

     iteration #  5     ecut=    35.00 Ry     beta= 0.40
     Davidson diagonalization with overlap
     ethr =  2.32E-05,  avg # of iterations =  2.6

     negative rho (up, down):  1.494E-04 0.000E+00

     total cpu time spent up to now is       11.7 secs

     total energy              =     -74.72918400 Ry
     Harris-Foulkes estimate   =     -74.72920546 Ry
     estimated scf accuracy    <       0.00007552 Ry

     iteration #  6     ecut=    35.00 Ry     beta= 0.40
     Davidson diagonalization with overlap
     ethr =  7.55E-07,  avg # of iterations =  2.8

     negative rho (up, down):  1.498E-04 0.000E+00

     total cpu time spent up to now is       12.2 secs

     total energy              =     -74.72917802 Ry
     Harris-Foulkes estimate   =     -74.72918920 Ry
     estimated scf accuracy    <       0.00003672 Ry

     iteration #  7     ecut=    35.00 Ry     beta= 0.40
     Davidson diagonalization with overlap
     ethr =  3.67E-07,  avg # of iterations =  1.4

     negative rho (up, down):  1.504E-04 0.000E+00

     total cpu time spent up to now is       12.7 secs

     total energy              =     -74.72916840 Ry
     Harris-Foulkes estimate   =     -74.72917965 Ry
     estimated scf accuracy    <       0.00001525 Ry

     iteration #  8     ecut=    35.00 Ry     beta= 0.40
     Davidson diagonalization with overlap
     ethr =  1.53E-07,  avg # of iterations =  2.6

     negative rho (up, down):  1.502E-04 0.000E+00

     total cpu time spent up to now is       13.3 secs

     End of self-consistent calculation

          k = 0.0000 0.0000 0.0000 (   941 PWs)   bands (ev):

   -36.4795 -17.3854 -17.3854 -17.3854   1.3045   7.8372   7.8372   7.8372
     8.9768

     occupation numbers 
     1.0000   1.0000   1.0000   1.0000   1.0000   0.0000   0.0000   0.0000
     0.0000

          k =-0.1690 0.1690-0.1690 (   968 PWs)   bands (ev):

   -36.4751 -17.4284 -17.3912 -17.3912   1.7925   7.3474   7.9780   7.9780
     8.8786

     occupation numbers 
     1.0000   1.0000   1.0000   1.0000   1.0000   0.0000   0.0000   0.0000
     0.0000

          k =-0.3379 0.3379-0.3379 (   968 PWs)   bands (ev):

   -36.4663 -17.5129 -17.4028 -17.4028   3.1010   6.3353   7.8656   7.8656
     9.2785

     occupation numbers 
     1.0000   1.0000   1.0000   1.0000   1.0000   0.0000   0.0000   0.0000
     0.0000

          k = 0.5069-0.5069 0.5069 (   978 PWs)   bands (ev):

   -36.4619 -17.5545 -17.4086 -17.4086   4.4194   5.3066   7.7116   7.7116
     9.7096

     occupation numbers 
     1.0000   1.0000   1.0000   1.0000   1.0000   0.9519   0.0000   0.0000
     0.0000

          k = 0.0000 0.3379 0.0000 (   966 PWs)   bands (ev):

   -36.4736 -17.4270 -17.4008 -17.4008   1.9519   7.2400   8.1097   8.1097
     8.3387

     occupation numbers 
     1.0000   1.0000   1.0000   1.0000   1.0000   0.0000   0.0000   0.0000
     0.0000

          k =-0.1690 0.5069-0.1690 (   981 PWs)   bands (ev):

   -36.4664 -17.4888 -17.4148 -17.4143   2.9845   6.5922   7.5700   8.2287
     8.8191

     occupation numbers 
     1.0000   1.0000   1.0000   1.0000   1.0000   0.0000   0.0000   0.0000
     0.0000

          k = 0.6759-0.3379 0.6759 (   992 PWs)   bands (ev):

   -36.4605 -17.5372 -17.4334 -17.4182   4.5102   5.5976   7.2403   8.0410
     9.7350

     occupation numbers 
     1.0000   1.0000   1.0000   1.0000   1.0000   0.0868   0.0000   0.0000
     0.0000

          k = 0.5069-0.1690 0.5069 (   975 PWs)   bands (ev):

   -36.4619 -17.5238 -17.4388 -17.4086   3.9974   6.0442   7.2260   8.0557
     9.1592

     occupation numbers 
     1.0000   1.0000   1.0000   1.0000   1.0000   0.0000   0.0000   0.0000
     0.0000

          k = 0.3379 0.0000 0.3379 (   975 PWs)   bands (ev):

   -36.4693 -17.4690 -17.4186 -17.3952   2.5585   6.8822   7.6845   8.3504
     8.4126

     occupation numbers 
     1.0000   1.0000   1.0000   1.0000   1.0000   0.0000   0.0000   0.0000
     0.0000

          k = 0.0000 0.6759 0.0000 (  1002 PWs)   bands (ev):

   -36.4620 -17.5066 -17.4316 -17.4316   3.6228   6.3385   7.1099   8.9595
     8.9595

     occupation numbers 
     1.0000   1.0000   1.0000   1.0000   1.0000   0.0000   0.0000   0.0000
     0.0000

          k = 0.8449-0.1690 0.8449 (   987 PWs)   bands (ev):

   -36.4576 -17.5274 -17.4573 -17.4374   4.7554   6.0046   6.6027   8.9407
     9.8533

     occupation numbers 
     1.0000   1.0000   1.0000   1.0000   1.0000   0.0000   0.0000   0.0000
     0.0000

          k = 0.6759 0.0000 0.6759 (   981 PWs)   bands (ev):

   -36.4576 -17.4991 -17.4981 -17.4259   5.2344   5.9855   6.2777   8.5382
     9.3981

     occupation numbers 
     1.0000   1.0000   1.0000   1.0000   0.9921   0.0000   0.0000   0.0000
     0.0000

          k = 0.0000-1.0138 0.0000 (   982 PWs)   bands (ev):

   -36.4562 -17.5444 -17.4469 -17.4469   4.9154   5.9729   6.4954   9.7025
     9.9057

     occupation numbers 
     1.0000   1.0000   1.0000   1.0000   1.0000   0.0000   0.0000   0.0000
     0.0000

          k = 0.6759-0.3379 1.0138 (   983 PWs)   bands (ev):

   -36.4605 -17.5113 -17.4538 -17.4231   4.1307   6.2974   6.7989   8.4963
     9.0718

     occupation numbers 
     1.0000   1.0000   1.0000   1.0000   1.0000   0.0000   0.0000   0.0000
     0.0000

          k = 0.5069-0.1690 0.8449 (   988 PWs)   bands (ev):

   -36.4576 -17.5164 -17.4742 -17.4327   5.4303   5.5496   6.5850   8.3037
     9.5241

     occupation numbers 
     1.0000   1.0000   1.0000   1.0000   0.6474   0.1944   0.0000   0.0000
     0.0000

          k =-0.3379-1.0138 0.0000 (   978 PWs)   bands (ev):

   -36.4561 -17.5201 -17.4714 -17.4481   5.3736   6.0434   6.2922   8.5419
     9.9075

     occupation numbers 
     1.0000   1.0000   1.0000   1.0000   0.8334   0.0000   0.0000   0.0000
     0.0000

     the Fermi energy is     5.4667 ev

!    total energy              =     -74.72917307 Ry
     Harris-Foulkes estimate   =     -74.72917334 Ry
     estimated scf accuracy    <       0.00000032 Ry

     The total energy is the sum of the following terms:

     one-electron contribution =     -37.57295716 Ry
     hartree contribution      =      19.33840969 Ry
     xc contribution           =     -11.76991631 Ry
     ewald contribution        =     -44.72320566 Ry
     smearing contrib. (-TS)   =      -0.00150363 Ry

     convergence has been achieved in   8 iterations

     negative rho (up, down):  1.502E-04 0.000E+00

     Forces acting on atoms (cartesian axes, Ry/au):

     atom    1 type  1   force =     0.00000000    0.00000000    0.00000000
     The non-local contrib.  to forces
     atom    1 type  1   force =     0.00000000    0.00000000    0.00000000
     The ionic contribution  to forces
     atom    1 type  1   force =     0.00000000    0.00000000    0.00000000
     The local contribution  to forces
     atom    1 type  1   force =    -0.00000000    0.00000000    0.00000000
     The core correction contribution to forces
     atom    1 type  1   force =    -0.00000000   -0.00000000    0.00000000
     The Hubbard contrib.    to forces
     atom    1 type  1   force =     0.00000000    0.00000000    0.00000000
     The SCF correction term to forces
     atom    1 type  1   force =    -0.00000000   -0.00000000    0.00000000

     Total force =     0.000000     Total SCF correction =     0.000000


     Computing stress (Cartesian axis) and pressure


     negative rho (up, down):  1.502E-04 0.000E+00
          total   stress  (Ry/bohr**3)                   (kbar)     P=   11.20
   0.00007612   0.00000000   0.00000000         11.20      0.00      0.00
   0.00000000   0.00007612  -0.00000000          0.00     11.20     -0.00
   0.00000000  -0.00000000   0.00007612          0.00     -0.00     11.20

     kinetic stress (kbar)   4585.61      0.00      0.00
                                0.00   4585.61     -0.00
                                0.00     -0.00   4585.61

     local   stress (kbar)  -3473.36      0.00      0.00
                                0.00  -3473.36      0.00
                                0.00      0.00  -3473.36

     nonloc. stress (kbar)   5511.28      0.00      0.00
                               -0.00   5511.28     -0.00
                                0.00     -0.00   5511.28

     hartree stress (kbar)   3520.52     -0.00     -0.00
                               -0.00   3520.52     -0.00
                               -0.00     -0.00   3520.52

     exc-cor stress (kbar)  -1072.24     -0.00      0.00
                               -0.00  -1072.24     -0.00
                                0.00     -0.00  -1072.24

     corecor stress (kbar)   -918.84      0.00     -0.00
                                0.00   -918.84     -0.00
                               -0.00     -0.00   -918.84

     ewald   stress (kbar)  -8141.78     -0.00     -0.00
                               -0.00  -8141.78      0.00
                               -0.00      0.00  -8141.78

     hubbard stress (kbar)      0.00      0.00      0.00
                                0.00      0.00      0.00
                                0.00      0.00      0.00

     london  stress (kbar)      0.00      0.00      0.00
                                0.00      0.00      0.00
                                0.00      0.00      0.00

     DFT-D3  stress (kbar)      0.00      0.00      0.00
                                0.00      0.00      0.00
                                0.00      0.00      0.00

     XDM     stress (kbar)      0.00      0.00      0.00
                                0.00      0.00      0.00
                                0.00      0.00      0.00

     dft-nl  stress (kbar)      0.00      0.00      0.00
                                0.00      0.00      0.00
                                0.00      0.00      0.00

     TS-vdW  stress (kbar)      0.00      0.00      0.00
                                0.00      0.00      0.00
                                0.00      0.00      0.00



     number of scf cycles    =   2
     number of bfgs steps    =   1

     enthalpy old            =     -74.5768883142 Ry
     enthalpy new            =     -74.5826916802 Ry

     CASE: enthalpy_new < enthalpy_old


     WARNING: bfgs curvature condition failed, Theta= 0.960
     new trust radius        =       0.0681284425 bohr
     new conv_thr            =       0.0000000100 Ry

     new unit-cell volume =    252.92581 a.u.^3 (    37.47974 Ang^3 )
     density =      1.77565 g/cm^3

CELL_PARAMETERS (alat= 10.39349373)
  -0.482939609  -0.000000000   0.482939609
  -0.000000000   0.482939609   0.482939609
  -0.482939609   0.482939609  -0.000000000

ATOMIC_POSITIONS (crystal)
Ca       0.000000000   0.000000000   0.000000000



     Writing output data file Ca.save/
     Check: negative starting charge=   -0.000160
     NEW-OLD atomic charge density approx. for the potential

     Check: negative/imaginary core charge=   -0.000003    0.000000
     Check: negative starting charge=   -0.000151

     negative rho (up, down):  1.302E-04 0.000E+00
     extrapolated charge    9.35091, renormalised to   10.00000

     total cpu time spent up to now is       16.3 secs

     Self-consistent Calculation

     iteration #  1     ecut=    35.00 Ry     beta= 0.40
     Davidson diagonalization with overlap
     ethr =  1.00E-06,  avg # of iterations =  5.1

     negative rho (up, down):  1.044E-04 0.000E+00

     total cpu time spent up to now is       17.2 secs

     total energy              =     -74.58134019 Ry
     Harris-Foulkes estimate   =     -76.29073211 Ry
     estimated scf accuracy    <       0.10342463 Ry

     iteration #  2     ecut=    35.00 Ry     beta= 0.40
     Davidson diagonalization with overlap
     ethr =  1.03E-03,  avg # of iterations =  3.2

     negative rho (up, down):  1.173E-04 0.000E+00

     total cpu time spent up to now is       17.9 secs

     total energy              =     -74.73325534 Ry
     Harris-Foulkes estimate   =     -74.74887027 Ry
     estimated scf accuracy    <       0.04271681 Ry

     iteration #  3     ecut=    35.00 Ry     beta= 0.40
     Davidson diagonalization with overlap
     ethr =  4.27E-04,  avg # of iterations =  1.0

     negative rho (up, down):  1.237E-04 0.000E+00

     total cpu time spent up to now is       18.4 secs

     total energy              =     -74.73021617 Ry
     Harris-Foulkes estimate   =     -74.73458134 Ry
     estimated scf accuracy    <       0.01590863 Ry

     iteration #  4     ecut=    35.00 Ry     beta= 0.40
     Davidson diagonalization with overlap
     ethr =  1.59E-04,  avg # of iterations =  1.7

     negative rho (up, down):  1.309E-04 0.000E+00

     total cpu time spent up to now is       18.9 secs

     total energy              =     -74.72797313 Ry
     Harris-Foulkes estimate   =     -74.73080124 Ry
     estimated scf accuracy    <       0.00705676 Ry

     iteration #  5     ecut=    35.00 Ry     beta= 0.40
     Davidson diagonalization with overlap
     ethr =  7.06E-05,  avg # of iterations =  1.5

     negative rho (up, down):  1.391E-04 0.000E+00

     total cpu time spent up to now is       19.4 secs

     total energy              =     -74.72693693 Ry
     Harris-Foulkes estimate   =     -74.72833760 Ry
     estimated scf accuracy    <       0.00215678 Ry

     iteration #  6     ecut=    35.00 Ry     beta= 0.40
     Davidson diagonalization with overlap
     ethr =  2.16E-05,  avg # of iterations =  3.0

     negative rho (up, down):  1.392E-04 0.000E+00

     total cpu time spent up to now is       20.0 secs

     total energy              =     -74.72745095 Ry
     Harris-Foulkes estimate   =     -74.72744965 Ry
     estimated scf accuracy    <       0.00000845 Ry

     iteration #  7     ecut=    35.00 Ry     beta= 0.40
     Davidson diagonalization with overlap
     ethr =  8.45E-08,  avg # of iterations =  2.6

     negative rho (up, down):  1.393E-04 0.000E+00

     total cpu time spent up to now is       20.6 secs

     total energy              =     -74.72744992 Ry
     Harris-Foulkes estimate   =     -74.72745273 Ry
     estimated scf accuracy    <       0.00001102 Ry

     iteration #  8     ecut=    35.00 Ry     beta= 0.40
     Davidson diagonalization with overlap
     ethr =  8.45E-08,  avg # of iterations =  1.0

     negative rho (up, down):  1.396E-04 0.000E+00

     total cpu time spent up to now is       21.1 secs

     total energy              =     -74.72744586 Ry
     Harris-Foulkes estimate   =     -74.72745014 Ry
     estimated scf accuracy    <       0.00000576 Ry

     iteration #  9     ecut=    35.00 Ry     beta= 0.40
     Davidson diagonalization with overlap
     ethr =  5.76E-08,  avg # of iterations =  2.6

     negative rho (up, down):  1.395E-04 0.000E+00

     total cpu time spent up to now is       21.7 secs

     total energy              =     -74.72744746 Ry
     Harris-Foulkes estimate   =     -74.72744753 Ry
     estimated scf accuracy    <       0.00000011 Ry

     iteration # 10     ecut=    35.00 Ry     beta= 0.40
     Davidson diagonalization with overlap
     ethr =  1.11E-09,  avg # of iterations =  2.6

     negative rho (up, down):  1.395E-04 0.000E+00

     total cpu time spent up to now is       22.2 secs

     End of self-consistent calculation

          k = 0.0000 0.0000 0.0000 (   941 PWs)   bands (ev):

   -35.8566 -16.7508 -16.7508 -16.7508   1.6762   8.3983   8.3983   8.3983
     9.6243

     occupation numbers 
     1.0000   1.0000   1.0000   1.0000   1.0000   0.0000   0.0000   0.0000
     0.0000

          k =-0.1726 0.1726-0.1726 (   968 PWs)   bands (ev):

   -35.8508 -16.8049 -16.7580 -16.7580   2.1905   7.8786   8.5494   8.5494
     9.5164

     occupation numbers 
     1.0000   1.0000   1.0000   1.0000   1.0000   0.0000   0.0000   0.0000
     0.0000

          k =-0.3451 0.3451-0.3451 (   968 PWs)   bands (ev):

   -35.8390 -16.9108 -16.7722 -16.7722   3.5531   6.8418   8.4267   8.4267
     9.9480

     occupation numbers 
     1.0000   1.0000   1.0000   1.0000   1.0000   0.0000   0.0000   0.0000
     0.0000

          k = 0.5177-0.5177 0.5177 (   978 PWs)   bands (ev):

   -35.8331 -16.9629 -16.7793 -16.7793   4.8709   5.8507   8.2610   8.2610
    10.4152

     occupation numbers 
     1.0000   1.0000   1.0000   1.0000   1.0000   0.8533   0.0000   0.0000
     0.0000

          k = 0.0000 0.3451 0.0000 (   966 PWs)   bands (ev):

   -35.8488 -16.8032 -16.7700 -16.7700   2.3580   7.7561   8.6943   8.6943
     8.9324

     occupation numbers 
     1.0000   1.0000   1.0000   1.0000   1.0000   0.0000   0.0000   0.0000
     0.0000

          k =-0.1726 0.5177-0.1726 (   981 PWs)   bands (ev):

   -35.8391 -16.8806 -16.7873 -16.7867   3.4348   7.0829   8.1102   8.8217
     9.4578

     occupation numbers 
     1.0000   1.0000   1.0000   1.0000   1.0000   0.0000   0.0000   0.0000
     0.0000

          k = 0.6902-0.3451 0.6902 (   992 PWs)   bands (ev):

   -35.8312 -16.9410 -16.8106 -16.7914   4.9918   6.0986   7.7633   8.6172
    10.4486

     occupation numbers 
     1.0000   1.0000   1.0000   1.0000   1.0000   0.0636   0.0000   0.0000
     0.0000

          k = 0.5177-0.1726 0.5177 (   975 PWs)   bands (ev):

   -35.8332 -16.9244 -16.8174 -16.7794   4.4774   6.5458   7.7477   8.6305
     9.8183

     occupation numbers 
     1.0000   1.0000   1.0000   1.0000   1.0000   0.0000   0.0000   0.0000
     0.0000

          k = 0.3451 0.0000 0.3451 (   975 PWs)   bands (ev):

   -35.8430 -16.8558 -16.7921 -16.7627   2.9929   7.3899   8.2375   8.9474
     9.0124

     occupation numbers 
     1.0000   1.0000   1.0000   1.0000   1.0000   0.0000   0.0000   0.0000
     0.0000

          k = 0.0000 0.6902 0.0000 (  1002 PWs)   bands (ev):

   -35.8333 -16.9027 -16.8082 -16.8082   4.0850   6.7963   7.6445   9.6116
     9.6116

     occupation numbers 
     1.0000   1.0000   1.0000   1.0000   1.0000   0.0000   0.0000   0.0000
     0.0000

          k = 0.8628-0.1726 0.8628 (   987 PWs)   bands (ev):

   -35.8274 -16.9285 -16.8405 -16.8153   5.2159   6.4661   7.1408   9.5878
    10.5818

     occupation numbers 
     1.0000   1.0000   1.0000   1.0000   1.0000   0.0000   0.0000   0.0000
     0.0000

          k = 0.6902 0.0000 0.6902 (   981 PWs)   bands (ev):

   -35.8273 -16.8931 -16.8917 -16.8010   5.7219   6.4480   6.8116   9.1528
    10.0764

     occupation numbers 
     1.0000   1.0000   1.0000   1.0000   0.9916   0.0000   0.0000   0.0000
     0.0000

          k = 0.0000-1.0353 0.0000 (   982 PWs)   bands (ev):

   -35.8254 -16.9497 -16.8272 -16.8272   5.3231   6.4091   7.1128  10.4082
    10.6276

     occupation numbers 
     1.0000   1.0000   1.0000   1.0000   1.0000   0.0000   0.0000   0.0000
     0.0000

          k = 0.6902-0.3451 1.0353 (   983 PWs)   bands (ev):

   -35.8312 -16.9085 -16.8361 -16.7976   4.6131   6.7812   7.3012   9.1136
     9.7277

     occupation numbers 
     1.0000   1.0000   1.0000   1.0000   1.0000   0.0000   0.0000   0.0000
     0.0000

          k = 0.5177-0.1726 0.8628 (   988 PWs)   bands (ev):

   -35.8273 -16.9147 -16.8617 -16.8095   5.9085   6.0495   7.0865   8.9137
    10.2223

     occupation numbers 
     1.0000   1.0000   1.0000   1.0000   0.6738   0.1549   0.0000   0.0000
     0.0000

          k =-0.3451-1.0353 0.0000 (   978 PWs)   bands (ev):

   -35.8254 -16.9193 -16.8580 -16.8289   5.8027   6.5157   6.8503   9.1887
    10.6296

     occupation numbers 
     1.0000   1.0000   1.0000   1.0000   0.9394   0.0000   0.0000   0.0000
     0.0000

     the Fermi energy is     5.9518 ev

!    total energy              =     -74.72744749 Ry
     Harris-Foulkes estimate   =     -74.72744749 Ry
     estimated scf accuracy    <          2.6E-10 Ry

     The total energy is the sum of the following terms:

     one-electron contribution =     -36.08586107 Ry
     hartree contribution      =      18.82464980 Ry
     xc contribution           =     -11.79378257 Ry
     ewald contribution        =     -45.67114453 Ry
     smearing contrib. (-TS)   =      -0.00130911 Ry

     convergence has been achieved in  10 iterations

     negative rho (up, down):  1.395E-04 0.000E+00

     Forces acting on atoms (cartesian axes, Ry/au):

     atom    1 type  1   force =     0.00000000    0.00000000    0.00000000
     The non-local contrib.  to forces
     atom    1 type  1   force =     0.00000000    0.00000000    0.00000000
     The ionic contribution  to forces
     atom    1 type  1   force =     0.00000000    0.00000000    0.00000000
     The local contribution  to forces
     atom    1 type  1   force =    -0.00000000   -0.00000000    0.00000000
     The core correction contribution to forces
     atom    1 type  1   force =    -0.00000000   -0.00000000    0.00000000
     The Hubbard contrib.    to forces
     atom    1 type  1   force =     0.00000000    0.00000000    0.00000000
     The SCF correction term to forces
     atom    1 type  1   force =    -0.00000000   -0.00000000    0.00000000

     Total force =     0.000000     Total SCF correction =     0.000000


     Computing stress (Cartesian axis) and pressure


     negative rho (up, down):  1.395E-04 0.000E+00
          total   stress  (Ry/bohr**3)                   (kbar)     P=   22.90
   0.00015567   0.00000000   0.00000000         22.90      0.00      0.00
   0.00000000   0.00015567  -0.00000000          0.00     22.90     -0.00
   0.00000000  -0.00000000   0.00015567          0.00     -0.00     22.90

     kinetic stress (kbar)   4901.02      0.00      0.00
                                0.00   4901.02     -0.00
                                0.00     -0.00   4901.02

     local   stress (kbar)  -3418.76      0.00      0.00
                                0.00  -3418.76     -0.00
                                0.00     -0.00  -3418.76

     nonloc. stress (kbar)   5869.86      0.00     -0.00
                                0.00   5869.86      0.00
                               -0.00      0.00   5869.86

     hartree stress (kbar)   3649.56     -0.00      0.00
                               -0.00   3649.56      0.00
                                0.00      0.00   3649.56

     exc-cor stress (kbar)  -1145.85     -0.00      0.00
                               -0.00  -1145.85     -0.00
                                0.00     -0.00  -1145.85

     corecor stress (kbar)   -978.61      0.00     -0.00
                                0.00   -978.61     -0.00
                               -0.00     -0.00   -978.61

     ewald   stress (kbar)  -8854.32     -0.00     -0.00
                               -0.00  -8854.32      0.00
                               -0.00      0.00  -8854.32

     hubbard stress (kbar)      0.00      0.00      0.00
                                0.00      0.00      0.00
                                0.00      0.00      0.00

     london  stress (kbar)      0.00      0.00      0.00
                                0.00      0.00      0.00
                                0.00      0.00      0.00

     DFT-D3  stress (kbar)      0.00      0.00      0.00
                                0.00      0.00      0.00
                                0.00      0.00      0.00

     XDM     stress (kbar)      0.00      0.00      0.00
                                0.00      0.00      0.00
                                0.00      0.00      0.00

     dft-nl  stress (kbar)      0.00      0.00      0.00
                                0.00      0.00      0.00
                                0.00      0.00      0.00

     TS-vdW  stress (kbar)      0.00      0.00      0.00
                                0.00      0.00      0.00
                                0.00      0.00      0.00



     number of scf cycles    =   3
     number of bfgs steps    =   2

     enthalpy old            =     -74.5826916802 Ry
     enthalpy new            =     -74.5898990855 Ry

     CASE: enthalpy_new < enthalpy_old

     new trust radius        =       0.1011265601 bohr
     new conv_thr            =       0.0000000100 Ry

     new unit-cell volume =    229.56047 a.u.^3 (    34.01735 Ang^3 )
     density =      1.95639 g/cm^3

CELL_PARAMETERS (alat= 10.39349373)
  -0.467585257  -0.000000000   0.467585257
  -0.000000000   0.467585257   0.467585257
  -0.467585257   0.467585257  -0.000000000

ATOMIC_POSITIONS (crystal)
Ca       0.000000000   0.000000000   0.000000000



     Writing output data file Ca.save/
     Check: negative starting charge=   -0.000151
     NEW-OLD atomic charge density approx. for the potential

     Check: negative/imaginary core charge=   -0.000002    0.000000
     Check: negative starting charge=   -0.000136

     negative rho (up, down):  1.097E-04 0.000E+00
     extrapolated charge    8.98273, renormalised to   10.00000

     total cpu time spent up to now is       25.2 secs

     Self-consistent Calculation

     iteration #  1     ecut=    35.00 Ry     beta= 0.40
     Davidson diagonalization with overlap
     ethr =  1.00E-06,  avg # of iterations =  5.8

     negative rho (up, down):  6.096E-05 0.000E+00

     total cpu time spent up to now is       26.1 secs

     total energy              =     -74.30266713 Ry
     Harris-Foulkes estimate   =     -77.02455467 Ry
     estimated scf accuracy    <       0.32191536 Ry

     iteration #  2     ecut=    35.00 Ry     beta= 0.40
     Davidson diagonalization with overlap
     ethr =  3.22E-03,  avg # of iterations =  3.1

     negative rho (up, down):  8.305E-05 0.000E+00

     total cpu time spent up to now is       26.8 secs

     total energy              =     -74.73839812 Ry
     Harris-Foulkes estimate   =     -74.78427437 Ry
     estimated scf accuracy    <       0.12461140 Ry

     iteration #  3     ecut=    35.00 Ry     beta= 0.40
     Davidson diagonalization with overlap
     ethr =  1.25E-03,  avg # of iterations =  1.1

     negative rho (up, down):  9.275E-05 0.000E+00

     total cpu time spent up to now is       27.3 secs

     total energy              =     -74.73136405 Ry
     Harris-Foulkes estimate   =     -74.74239677 Ry
     estimated scf accuracy    <       0.04552847 Ry

     iteration #  4     ecut=    35.00 Ry     beta= 0.40
     Davidson diagonalization with overlap
     ethr =  4.55E-04,  avg # of iterations =  1.3

     negative rho (up, down):  1.034E-04 0.000E+00

     total cpu time spent up to now is       27.8 secs

     total energy              =     -74.72538064 Ry
     Harris-Foulkes estimate   =     -74.73268040 Ry
     estimated scf accuracy    <       0.02273150 Ry

     iteration #  5     ecut=    35.00 Ry     beta= 0.40
     Davidson diagonalization with overlap
     ethr =  2.27E-04,  avg # of iterations =  1.1

     negative rho (up, down):  1.228E-04 0.000E+00

     total cpu time spent up to now is       28.3 secs

     total energy              =     -74.71922401 Ry
     Harris-Foulkes estimate   =     -74.72600284 Ry
     estimated scf accuracy    <       0.01034434 Ry

     iteration #  6     ecut=    35.00 Ry     beta= 0.40
     Davidson diagonalization with overlap
     ethr =  1.03E-04,  avg # of iterations =  3.1

     negative rho (up, down):  1.224E-04 0.000E+00

     total cpu time spent up to now is       29.0 secs

     total energy              =     -74.72174271 Ry
     Harris-Foulkes estimate   =     -74.72171902 Ry
     estimated scf accuracy    <       0.00001521 Ry

     iteration #  7     ecut=    35.00 Ry     beta= 0.40
     Davidson diagonalization with overlap
     ethr =  1.52E-07,  avg # of iterations =  3.2

     negative rho (up, down):  1.239E-04 0.000E+00

     total cpu time spent up to now is       29.6 secs

     total energy              =     -74.72170662 Ry
     Harris-Foulkes estimate   =     -74.72175500 Ry
     estimated scf accuracy    <       0.00007064 Ry

     iteration #  8     ecut=    35.00 Ry     beta= 0.40
     Davidson diagonalization with overlap
     ethr =  1.52E-07,  avg # of iterations =  2.6

     negative rho (up, down):  1.241E-04 0.000E+00

     total cpu time spent up to now is       30.2 secs

     total energy              =     -74.72172095 Ry
     Harris-Foulkes estimate   =     -74.72172057 Ry
     estimated scf accuracy    <       0.00000008 Ry

     iteration #  9     ecut=    35.00 Ry     beta= 0.40
     Davidson diagonalization with overlap
     ethr =  7.73E-10,  avg # of iterations =  3.9

     negative rho (up, down):  1.235E-04 0.000E+00

     total cpu time spent up to now is       30.9 secs

     total energy              =     -74.72171997 Ry
     Harris-Foulkes estimate   =     -74.72172155 Ry
     estimated scf accuracy    <       0.00000206 Ry

     iteration # 10     ecut=    35.00 Ry     beta= 0.40
     Davidson diagonalization with overlap
     ethr =  7.73E-10,  avg # of iterations =  3.6

     negative rho (up, down):  1.237E-04 0.000E+00

     total cpu time spent up to now is       31.6 secs

     total energy              =     -74.72172052 Ry
     Harris-Foulkes estimate   =     -74.72172061 Ry
     estimated scf accuracy    <       0.00000010 Ry

     iteration # 11     ecut=    35.00 Ry     beta= 0.40
     Davidson diagonalization with overlap
     ethr =  7.73E-10,  avg # of iterations =  2.6

     negative rho (up, down):  1.236E-04 0.000E+00

     total cpu time spent up to now is       32.2 secs

     total energy              =     -74.72172055 Ry
     Harris-Foulkes estimate   =     -74.72172057 Ry
     estimated scf accuracy    <       0.00000002 Ry

     iteration # 12     ecut=    35.00 Ry     beta= 0.40
     Davidson diagonalization with overlap
     ethr =  1.87E-10,  avg # of iterations =  2.6

     negative rho (up, down):  1.236E-04 0.000E+00

     total cpu time spent up to now is       32.8 secs

     End of self-consistent calculation

          k = 0.0000 0.0000 0.0000 (   941 PWs)   bands (ev):

   -34.8557 -15.7221 -15.7221 -15.7221   2.3123   9.3105   9.3105   9.3105
    10.6795

     occupation numbers 
     1.0000   1.0000   1.0000   1.0000   1.0000   0.0000   0.0000   0.0000
     0.0000

          k =-0.1782 0.1782-0.1782 (   968 PWs)   bands (ev):

   -34.8466 -15.7983 -15.7319 -15.7319   2.8709   8.7444   9.4788   9.4788
    10.5550

     occupation numbers 
     1.0000   1.0000   1.0000   1.0000   1.0000   0.0000   0.0000   0.0000
     0.0000

          k =-0.3564 0.3564-0.3564 (   968 PWs)   bands (ev):

   -34.8284 -15.9468 -15.7513 -15.7513   4.3188   7.6792   9.3392   9.3392
    11.0393

     occupation numbers 
     1.0000   1.0000   1.0000   1.0000   1.0000   0.0000   0.0000   0.0000
     0.0000

          k = 0.5347-0.5347 0.5347 (   978 PWs)   bands (ev):

   -34.8192 -16.0194 -15.7610 -15.7610   5.6156   6.7750   9.1542   9.1542
    11.5666

     occupation numbers 
     1.0000   1.0000   1.0000   1.0000   1.0000   0.4692   0.0000   0.0000
     0.0000

          k = 0.0000 0.3564 0.0000 (   966 PWs)   bands (ev):

   -34.8436 -15.7960 -15.7486 -15.7486   3.0519   8.5948   9.6468   9.6468
     9.8986

     occupation numbers 
     1.0000   1.0000   1.0000   1.0000   1.0000   0.0000   0.0000   0.0000
     0.0000

          k =-0.1782 0.5347-0.1782 (   981 PWs)   bands (ev):

   -34.8284 -15.9044 -15.7726 -15.7716   4.1999   7.8850   8.9905   9.7885
    10.5010

     occupation numbers 
     1.0000   1.0000   1.0000   1.0000   1.0000   0.0000   0.0000   0.0000
     0.0000

          k = 0.7129-0.3564 0.7129 (   992 PWs)   bands (ev):

   -34.8163 -15.9886 -15.8050 -15.7778   5.7936   6.9348   8.6184   9.5557
    11.6178

     occupation numbers 
     1.0000   1.0000   1.0000   1.0000   1.0000   0.0411   0.0000   0.0000
     0.0000

          k = 0.5347-0.1782 0.5347 (   975 PWs)   bands (ev):

   -34.8193 -15.9655 -15.8146 -15.7612   5.2854   7.3770   8.5985   9.5659
    10.8922

     occupation numbers 
     1.0000   1.0000   1.0000   1.0000   1.0000   0.0000   0.0000   0.0000
     0.0000

          k = 0.3564 0.0000 0.3564 (   975 PWs)   bands (ev):

   -34.8345 -15.8698 -15.7795 -15.7382   3.7334   8.2197   9.1388   9.9184
     9.9884

     occupation numbers 
     1.0000   1.0000   1.0000   1.0000   1.0000   0.0000   0.0000   0.0000
     0.0000

          k = 0.0000 0.7129 0.0000 (  1002 PWs)   bands (ev):

   -34.8194 -15.9349 -15.8014 -15.8014   4.8615   7.5408   8.5290  10.6774
    10.6774

     occupation numbers 
     1.0000   1.0000   1.0000   1.0000   1.0000   0.0000   0.0000   0.0000
     0.0000

          k = 0.8911-0.1782 0.8911 (   987 PWs)   bands (ev):

   -34.8103 -15.9705 -15.8466 -15.8111   5.9729   7.2207   8.0446  10.6449
    11.7788

     occupation numbers 
     1.0000   1.0000   1.0000   1.0000   1.0000   0.0000   0.0000   0.0000
     0.0000

          k = 0.7129 0.0000 0.7129 (   981 PWs)   bands (ev):

   -34.8102 -15.9211 -15.9187 -15.7911   6.5333   7.2035   7.6997  10.1559
    11.1816

     occupation numbers 
     1.0000   1.0000   1.0000   1.0000   0.9925   0.0000   0.0000   0.0000
     0.0000

          k = 0.0000-1.0693 0.0000 (   982 PWs)   bands (ev):

   -34.8073 -16.0000 -15.8276 -15.8276   5.9895   7.1187   8.1584  11.5601
    11.8061

     occupation numbers 
     1.0000   1.0000   1.0000   1.0000   1.0000   0.0001   0.0000   0.0000
     0.0000

          k = 0.7129-0.3564 1.0693 (   983 PWs)   bands (ev):

   -34.8163 -15.9430 -15.8407 -15.7866   5.4244   7.5750   8.1247  10.1226
    10.7979

     occupation numbers 
     1.0000   1.0000   1.0000   1.0000   1.0000   0.0000   0.0000   0.0000
     0.0000

          k = 0.5347-0.1782 0.8911 (   988 PWs)   bands (ev):

   -34.8102 -15.9513 -15.8766 -15.8032   6.7009   6.8758   7.9145   9.9092
    11.3609

     occupation numbers 
     1.0000   1.0000   1.0000   1.0000   0.7559   0.1302   0.0000   0.0000
     0.0000

          k =-0.3564-1.0693-0.0000 (   978 PWs)   bands (ev):

   -34.8073 -15.9574 -15.8712 -15.8304   6.5073   7.2911   7.7835  10.2441
    11.8084

     occupation numbers 
     1.0000   1.0000   1.0000   1.0000   0.9966   0.0000   0.0000   0.0000
     0.0000

     the Fermi energy is     6.7676 ev

!    total energy              =     -74.72172056 Ry
     Harris-Foulkes estimate   =     -74.72172056 Ry
     estimated scf accuracy    <          1.9E-09 Ry

     The total energy is the sum of the following terms:

     one-electron contribution =     -33.74928021 Ry
     hartree contribution      =      18.03314155 Ry
     xc contribution           =     -11.83361642 Ry
     ewald contribution        =     -47.17087282 Ry
     smearing contrib. (-TS)   =      -0.00109266 Ry

     convergence has been achieved in  12 iterations

     negative rho (up, down):  1.236E-04 0.000E+00

     Forces acting on atoms (cartesian axes, Ry/au):

     atom    1 type  1   force =     0.00000000    0.00000000    0.00000000
     The non-local contrib.  to forces
     atom    1 type  1   force =     0.00000000    0.00000000    0.00000000
     The ionic contribution  to forces
     atom    1 type  1   force =     0.00000000    0.00000000    0.00000000
     The local contribution  to forces
     atom    1 type  1   force =    -0.00000000    0.00000000    0.00000000
     The core correction contribution to forces
     atom    1 type  1   force =    -0.00000000   -0.00000000    0.00000000
     The Hubbard contrib.    to forces
     atom    1 type  1   force =     0.00000000    0.00000000    0.00000000
     The SCF correction term to forces
     atom    1 type  1   force =    -0.00000000   -0.00000000    0.00000000

     Total force =     0.000000     Total SCF correction =     0.000000


     Computing stress (Cartesian axis) and pressure


     negative rho (up, down):  1.236E-04 0.000E+00
          total   stress  (Ry/bohr**3)                   (kbar)     P=   50.77
   0.00034509  -0.00000000   0.00000000         50.77     -0.00      0.00
  -0.00000000   0.00034509  -0.00000000         -0.00     50.77     -0.00
   0.00000000   0.00000000   0.00034509          0.00      0.00     50.77

     kinetic stress (kbar)   5433.17     -0.00     -0.00
                               -0.00   5433.17     -0.00
                               -0.00     -0.00   5433.17

     local   stress (kbar)  -3282.79     -0.00     -0.00
                               -0.00  -3282.79     -0.00
                               -0.00     -0.00  -3282.79

     nonloc. stress (kbar)   6472.54      0.00      0.00
                                0.00   6472.54     -0.00
                                0.00     -0.00   6472.54

     hartree stress (kbar)   3851.95      0.00      0.00
                                0.00   3851.95      0.00
                                0.00      0.00   3851.95

     exc-cor stress (kbar)  -1269.80     -0.00      0.00
                               -0.00  -1269.80     -0.00
                                0.00     -0.00  -1269.80

     corecor stress (kbar)  -1078.42      0.00      0.00
                                0.00  -1078.42     -0.00
                                0.00     -0.00  -1078.42

     ewald   stress (kbar) -10075.88     -0.00      0.00
                               -0.00 -10075.88      0.00
                                0.00      0.00 -10075.88

     hubbard stress (kbar)      0.00      0.00      0.00
                                0.00      0.00      0.00
                                0.00      0.00      0.00

     london  stress (kbar)      0.00      0.00      0.00
                                0.00      0.00      0.00
                                0.00      0.00      0.00

     DFT-D3  stress (kbar)      0.00      0.00      0.00
                                0.00      0.00      0.00
                                0.00      0.00      0.00

[...]
A_2u   1.00  1.00  1.00 -1.00 -1.00 -1.00 -1.00 -1.00  1.00  1.00
E_u    2.00 -1.00  2.00  0.00  0.00 -2.00  1.00 -2.00  0.00  0.00
T_1u   3.00  0.00 -1.00  1.00 -1.00 -3.00  0.00  1.00 -1.00  1.00
T_2u   3.00  0.00 -1.00 -1.00  1.00 -3.00  0.00  1.00  1.00 -1.00

     the symmetry operations in each class and the name of the first element:

     E        1
          identity                                               
     8C3     17   19   20   18   24   21   22   23
          120 deg rotation - cart. axis [-1,-1,-1]               
     3C2      2    4    3
          180 deg rotation - cart. axis [0,0,1]                  
     6C4      7    8   15   16   12   11
           90 deg rotation - cart. axis [0,0,-1]                 
     6C2'     5    6   14   13   10    9
          180 deg rotation - cart. axis [1,1,0]                  
     i       25
          inversion                                              
     8S6     41   43   44   42   48   45   46   47
          inv. 120 deg rotation - cart. axis [-1,-1,-1]          
     3s_h    26   28   27
          inv. 180 deg rotation - cart. axis [0,0,1]             
     6S4     31   32   39   40   36   35
          inv.  90 deg rotation - cart. axis [0,0,-1]            
     6s_d    29   30   38   37   34   33
          inv. 180 deg rotation - cart. axis [1,1,0]             

   Cartesian axes

     site n.     atom                  positions (alat units)
         1           Ca  tau(   1) = (   0.0000000   0.0000000   0.0000000  )

   Crystallographic axes

     site n.     atom                  positions (cryst. coord.)
         1           Ca  tau(   1) = (  0.0000000  0.0000000  0.0000000  )

     number of k points=    16  gaussian smearing, width (Ry)=  0.0100
                       cart. coord. in units 2pi/alat
        k(    1) = (   0.0000000   0.0000000   0.0000000), wk =   0.0092593
        k(    2) = (  -0.1829210   0.1829210  -0.1829210), wk =   0.0740741
        k(    3) = (  -0.3658421   0.3658421  -0.3658421), wk =   0.0740741
        k(    4) = (   0.5487631  -0.5487631   0.5487631), wk =   0.0370370
        k(    5) = (   0.0000000   0.3658421   0.0000000), wk =   0.0555556
        k(    6) = (  -0.1829210   0.5487631  -0.1829210), wk =   0.2222222
        k(    7) = (   0.7316841  -0.3658421   0.7316841), wk =   0.2222222
        k(    8) = (   0.5487631  -0.1829210   0.5487631), wk =   0.2222222
        k(    9) = (   0.3658421   0.0000000   0.3658421), wk =   0.1111111
        k(   10) = (   0.0000000   0.7316841   0.0000000), wk =   0.0555556
        k(   11) = (   0.9146051  -0.1829210   0.9146051), wk =   0.2222222
        k(   12) = (   0.7316841   0.0000000   0.7316841), wk =   0.1111111
        k(   13) = (   0.0000000  -1.0975262   0.0000000), wk =   0.0277778
        k(   14) = (   0.7316841  -0.3658421   1.0975262), wk =   0.2222222
        k(   15) = (   0.5487631  -0.1829210   0.9146051), wk =   0.2222222
        k(   16) = (  -0.3658421  -1.0975262   0.0000000), wk =   0.1111111

                       cryst. coord.
        k(    1) = (   0.0000000   0.0000000   0.0000000), wk =   0.0092593
        k(    2) = (   0.0000000   0.0000000   0.1666667), wk =   0.0740741
        k(    3) = (   0.0000000   0.0000000   0.3333333), wk =   0.0740741
        k(    4) = (   0.0000000   0.0000000  -0.5000000), wk =   0.0370370
        k(    5) = (  -0.0000000   0.1666667   0.1666667), wk =   0.0555556
        k(    6) = (  -0.0000000   0.1666667   0.3333333), wk =   0.2222222
        k(    7) = (   0.0000000   0.1666667  -0.5000000), wk =   0.2222222
        k(    8) = (   0.0000000   0.1666667  -0.3333333), wk =   0.2222222
        k(    9) = (   0.0000000   0.1666667  -0.1666667), wk =   0.1111111
        k(   10) = (  -0.0000000   0.3333333   0.3333333), wk =   0.0555556
        k(   11) = (   0.0000000   0.3333333  -0.5000000), wk =   0.2222222
        k(   12) = (   0.0000000   0.3333333  -0.3333333), wk =   0.1111111
        k(   13) = (   0.0000000  -0.5000000  -0.5000000), wk =   0.0277778
        k(   14) = (   0.1666667   0.3333333  -0.5000000), wk =   0.2222222
        k(   15) = (   0.1666667   0.3333333  -0.3333333), wk =   0.2222222
        k(   16) = (   0.1666667  -0.5000000  -0.3333333), wk =   0.1111111

     Dense  grid:    19987 G-vectors     FFT dimensions: (  40,  40,  40)

     Smooth grid:     5961 G-vectors     FFT dimensions: (  25,  25,  25)

     Dynamical RAM for                 wfc:       0.10 MB

     Dynamical RAM for     wfc (w. buffer):       1.73 MB

     Dynamical RAM for           str. fact:       0.30 MB

     Dynamical RAM for           local pot:       0.20 MB

     Dynamical RAM for          nlocal pot:       0.20 MB

     Dynamical RAM for                qrad:       4.71 MB

     Dynamical RAM for          rho,v,vnew:       2.38 MB

     Dynamical RAM for               rhoin:       0.79 MB

     Dynamical RAM for            rho*nmix:       4.88 MB

     Dynamical RAM for           G-vectors:       1.19 MB

     Dynamical RAM for          h,s,v(r/c):       0.06 MB

     Dynamical RAM for          <psi|beta>:       0.00 MB

     Dynamical RAM for                 psi:       0.41 MB

     Dynamical RAM for                hpsi:       0.41 MB

     Dynamical RAM for                spsi:       0.41 MB

     Dynamical RAM for      wfcinit/wfcrot:       0.23 MB

     Dynamical RAM for           addusdens:      57.03 MB

     Dynamical RAM for          addusforce:      57.19 MB

     Dynamical RAM for         addusstress:      61.30 MB

     Estimated static dynamical RAM per process >      19.45 MB

     Estimated max dynamical RAM per process >      80.75 MB

     Check: negative/imaginary core charge=   -0.000004    0.000000

     Initial potential from superposition of free atoms
     Check: negative starting charge=   -0.000176

     starting charge    9.99454, renormalised to   10.00000

     negative rho (up, down):  1.758E-04 0.000E+00
     Starting wfcs are   10 randomized atomic wfcs

     total cpu time spent up to now is       56.1 secs

     Self-consistent Calculation

     iteration #  1     ecut=    35.00 Ry     beta= 0.40
     Davidson diagonalization with overlap
     ethr =  1.00E-06,  avg # of iterations =  8.2

     negative rho (up, down):  1.695E-04 0.000E+00

     total cpu time spent up to now is       56.8 secs

     total energy              =     -74.71354140 Ry
     Harris-Foulkes estimate   =     -74.71373553 Ry
     estimated scf accuracy    <       0.00290637 Ry

     iteration #  2     ecut=    35.00 Ry     beta= 0.40
     Davidson diagonalization with overlap
     ethr =  2.91E-05,  avg # of iterations =  1.0

     negative rho (up, down):  1.632E-04 0.000E+00

     total cpu time spent up to now is       57.2 secs

     total energy              =     -74.71363190 Ry
     Harris-Foulkes estimate   =     -74.71360806 Ry
     estimated scf accuracy    <       0.00090689 Ry

     iteration #  3     ecut=    35.00 Ry     beta= 0.40
     Davidson diagonalization with overlap
     ethr =  9.07E-06,  avg # of iterations =  1.6

     negative rho (up, down):  1.629E-04 0.000E+00

     total cpu time spent up to now is       57.6 secs

     total energy              =     -74.71367392 Ry
     Harris-Foulkes estimate   =     -74.71368506 Ry
     estimated scf accuracy    <       0.00005218 Ry

     iteration #  4     ecut=    35.00 Ry     beta= 0.40
     Davidson diagonalization with overlap
     ethr =  5.22E-07,  avg # of iterations =  2.2

     negative rho (up, down):  1.627E-04 0.000E+00

     total cpu time spent up to now is       58.0 secs

     total energy              =     -74.71368239 Ry
     Harris-Foulkes estimate   =     -74.71368323 Ry
     estimated scf accuracy    <       0.00000120 Ry

     iteration #  5     ecut=    35.00 Ry     beta= 0.40
     Davidson diagonalization with overlap
     ethr =  1.20E-08,  avg # of iterations =  3.0

     negative rho (up, down):  1.626E-04 0.000E+00

     total cpu time spent up to now is       58.4 secs

     total energy              =     -74.71368281 Ry
     Harris-Foulkes estimate   =     -74.71368281 Ry
     estimated scf accuracy    <       0.00000007 Ry

     iteration #  6     ecut=    35.00 Ry     beta= 0.40
     Davidson diagonalization with overlap
     ethr =  6.62E-10,  avg # of iterations =  1.8

     negative rho (up, down):  1.625E-04 0.000E+00

     total cpu time spent up to now is       58.8 secs

     End of self-consistent calculation

          k = 0.0000 0.0000 0.0000 (   725 PWs)   bands (ev):

   -34.0085 -14.8413 -14.8413 -14.8413   2.8881  10.0939  10.0939  10.0939
    11.5885

     occupation numbers 
     1.0000   1.0000   1.0000   1.0000   1.0000   0.0000   0.0000   0.0000
     0.0000

          k =-0.1829 0.1829-0.1829 (   748 PWs)   bands (ev):

   -33.9958 -14.9410 -14.8538 -14.8538   3.4864   9.4893  10.2772  10.2772
    11.4484

     occupation numbers 
     1.0000   1.0000   1.0000   1.0000   1.0000   0.0000   0.0000   0.0000
     0.0000

          k =-0.3658 0.3658-0.3658 (   751 PWs)   bands (ev):

   -33.9702 -15.1342 -14.8787 -14.8787   5.0039   8.4114  10.1225  10.1225
    11.9788

     occupation numbers 
     1.0000   1.0000   1.0000   1.0000   1.0000   0.0000   0.0000   0.0000
     0.0000

          k = 0.5488-0.5488 0.5488 (   754 PWs)   bands (ev):

   -33.9573 -15.2281 -14.8911 -14.8911   6.2636   7.6049   9.9206   9.9206
    12.5587

     occupation numbers 
     1.0000   1.0000   1.0000   1.0000   1.0000   0.1080   0.0000   0.0000
     0.0000

          k = 0.0000 0.3658 0.0000 (   737 PWs)   bands (ev):

   -33.9916 -14.9381 -14.8755 -14.8755   3.6793   9.3146  10.4665  10.4665
    10.7290

     occupation numbers 
     1.0000   1.0000   1.0000   1.0000   1.0000   0.0000   0.0000   0.0000
     0.0000

          k =-0.1829 0.5488-0.1829 (   742 PWs)   bands (ev):

   -33.9703 -15.0789 -14.9065 -14.9049   4.8869   8.5772   9.7479  10.6210
    11.4015

     occupation numbers 
     1.0000   1.0000   1.0000   1.0000   1.0000   0.0000   0.0000   0.0000
     0.0000

          k = 0.7317-0.3658 0.7317 (   744 PWs)   bands (ev):

   -33.9531 -15.1879 -14.9483 -14.9127   6.4965   7.6728   9.3573  10.3628
    12.5967

     occupation numbers 
     1.0000   1.0000   1.0000   1.0000   1.0000   0.0260   0.0000   0.0000
     0.0000

          k = 0.5488-0.1829 0.5488 (   745 PWs)   bands (ev):

   -33.9574 -15.1581 -14.9610 -14.8913   6.0033   8.1047   9.3311  10.3695
    11.8162

     occupation numbers 
     1.0000   1.0000   1.0000   1.0000   1.0000   0.0000   0.0000   0.0000
     0.0000

          k = 0.3658 0.0000 0.3658 (   748 PWs)   bands (ev):

   -33.9788 -15.0342 -14.9155 -14.8618   4.4013   8.9357   9.9142  10.7524
    10.8267

     occupation numbers 
     1.0000   1.0000   1.0000   1.0000   1.0000   0.0000   0.0000   0.0000
     0.0000

          k = 0.0000 0.7317 0.0000 (   749 PWs)   bands (ev):

   -33.9576 -15.1181 -14.9434 -14.9434   5.5493   8.1794   9.3041  11.5976
    11.5976

     occupation numbers 
     1.0000   1.0000   1.0000   1.0000   1.0000   0.0000   0.0000   0.0000
     0.0000

          k = 0.9146-0.1829 0.9146 (   749 PWs)   bands (ev):

   -33.9448 -15.1638 -15.0023 -14.9558   6.6273   7.8714   8.8488  11.5567
    12.6850

     occupation numbers 
     1.0000   1.0000   1.0000   1.0000   1.0000   0.0000   0.0000   0.0000
     0.0000

          k = 0.7317 0.0000 0.7317 (   730 PWs)   bands (ev):

   -33.9446 -15.0998 -15.0963 -14.9298   7.2461   7.8550   8.4798  11.0206
    12.1333

     occupation numbers 
     1.0000   1.0000   1.0000   1.0000   0.9936   0.0001   0.0000   0.0000
     0.0000

          k = 0.0000-1.0975 0.0000 (   740 PWs)   bands (ev):

   -33.9406 -15.2018 -14.9771 -14.9771   6.5639   7.7277   9.0942  12.5536
    12.8223

     occupation numbers 
     1.0000   1.0000   1.0000   1.0000   1.0000   0.0060   0.0000   0.0000
     0.0000

          k = 0.7317-0.3658 1.0975 (   748 PWs)   bands (ev):

   -33.9532 -15.1286 -14.9948 -14.9243   6.1444   8.2623   8.8380  10.9938
    11.7203

     occupation numbers 
     1.0000   1.0000   1.0000   1.0000   1.0000   0.0000   0.0000   0.0000
     0.0000

          k = 0.5488-0.1829 0.9146 (   734 PWs)   bands (ev):

   -33.9446 -15.1389 -15.0414 -14.9457   7.3924   7.5969   8.6379  10.7666
    12.3420

     occupation numbers 
     1.0000   1.0000   1.0000   1.0000   0.8342   0.1242   0.0000   0.0000
     0.0000

          k =-0.3658-1.0975 0.0000 (   738 PWs)   bands (ev):

   -33.9405 -15.1464 -15.0341 -14.9811   7.1177   7.9630   8.6069  11.1527
    12.8250

     occupation numbers 
     1.0000   1.0000   1.0000   1.0000   0.9999   0.0000   0.0000   0.0000
     0.0000

     the Fermi energy is     7.4858 ev

!    total energy              =     -74.71368281 Ry
     Harris-Foulkes estimate   =     -74.71368282 Ry
     estimated scf accuracy    <          9.7E-09 Ry

     The total energy is the sum of the following terms:

     one-electron contribution =     -31.82161930 Ry
     hartree contribution      =      17.39182894 Ry
     xc contribution           =     -11.86805501 Ry
     ewald contribution        =     -48.41496270 Ry
     smearing contrib. (-TS)   =      -0.00087474 Ry

     convergence has been achieved in   6 iterations

     negative rho (up, down):  1.625E-04 0.000E+00

     Forces acting on atoms (cartesian axes, Ry/au):

     atom    1 type  1   force =     0.00000000    0.00000000    0.00000000
     The non-local contrib.  to forces
     atom    1 type  1   force =    -0.00000000   -0.00000000   -0.00000000
     The ionic contribution  to forces
     atom    1 type  1   force =     0.00000000    0.00000000    0.00000000
     The local contribution  to forces
     atom    1 type  1   force =     0.00000000    0.00000000   -0.00000000
     The core correction contribution to forces
     atom    1 type  1   force =     0.00000000    0.00000000   -0.00000000
     The Hubbard contrib.    to forces
     atom    1 type  1   force =     0.00000000    0.00000000    0.00000000
     The SCF correction term to forces
     atom    1 type  1   force =    -0.00000000   -0.00000000    0.00000000

     Total force =     0.000000     Total SCF correction =     0.000000


     Computing stress (Cartesian axis) and pressure


     negative rho (up, down):  1.625E-04 0.000E+00
          total   stress  (Ry/bohr**3)                   (kbar)     P=   78.55
   0.00053396  -0.00000000  -0.00000000         78.55     -0.00     -0.00
  -0.00000000   0.00053396   0.00000000         -0.00     78.55      0.00
   0.00000000   0.00000000   0.00053396          0.00      0.00     78.55

     kinetic stress (kbar)   5906.11      0.00      0.00
                                0.00   5906.11     -0.00
                                0.00     -0.00   5906.11

     local   stress (kbar)  -3119.68     -0.00      0.00
                               -0.00  -3119.68      0.00
                                0.00      0.00  -3119.68

     nonloc. stress (kbar)   7003.31     -0.00     -0.00
                               -0.00   7003.31      0.00
                               -0.00      0.00   7003.31

     hartree stress (kbar)   4016.72      0.00     -0.00
                                0.00   4016.72     -0.00
                               -0.00     -0.00   4016.72

     exc-cor stress (kbar)  -1380.10      0.00      0.00
                                0.00  -1380.10      0.00
                                0.00      0.00  -1380.10

     corecor stress (kbar)  -1166.17      0.00     -0.00
                                0.00  -1166.17      0.00
                               -0.00      0.00  -1166.17

     ewald   stress (kbar) -11181.65     -0.00     -0.00
                               -0.00 -11181.65      0.00
                               -0.00      0.00 -11181.65

     hubbard stress (kbar)      0.00      0.00      0.00
                                0.00      0.00      0.00
                                0.00      0.00      0.00

     london  stress (kbar)      0.00      0.00      0.00
                                0.00      0.00      0.00
                                0.00      0.00      0.00

     DFT-D3  stress (kbar)      0.00      0.00      0.00
                                0.00      0.00      0.00
                                0.00      0.00      0.00

     XDM     stress (kbar)      0.00      0.00      0.00
                                0.00      0.00      0.00
                                0.00      0.00      0.00

     dft-nl  stress (kbar)      0.00      0.00      0.00
                                0.00      0.00      0.00
                                0.00      0.00      0.00

     TS-vdW  stress (kbar)      0.00      0.00      0.00
                                0.00      0.00      0.00
                                0.00      0.00      0.00



     Writing output data file Ca.save/
 
     init_run     :      2.49s CPU      2.60s WALL (       2 calls)
     electrons    :     36.56s CPU     38.95s WALL (       7 calls)
     update_pot   :      4.66s CPU      4.68s WALL (       5 calls)
     forces       :      3.79s CPU      3.90s WALL (       7 calls)
     stress       :      7.94s CPU      8.31s WALL (       7 calls)

     Called by init_run:
     wfcinit      :      0.24s CPU      0.25s WALL (       2 calls)
     wfcinit:atom :      0.01s CPU      0.01s WALL (      32 calls)
     wfcinit:wfcr :      0.22s CPU      0.22s WALL (      32 calls)
     potinit      :      0.30s CPU      0.31s WALL (       2 calls)
     hinit0       :      1.83s CPU      1.84s WALL (       2 calls)

     Called by electrons:
     c_bands      :     22.88s CPU     23.18s WALL (      65 calls)
     sum_band     :      7.68s CPU      8.71s WALL (      65 calls)
     v_of_rho     :      3.05s CPU      3.07s WALL (      71 calls)
     v_h          :      0.13s CPU      0.13s WALL (      71 calls)
     v_xc         :      3.48s CPU      3.51s WALL (      85 calls)
     newd         :      3.13s CPU      4.26s WALL (      71 calls)
     mix_rho      :      0.26s CPU      0.28s WALL (      65 calls)

     Called by c_bands:
     init_us_2    :      0.72s CPU      0.73s WALL (    2336 calls)
     cegterg      :     21.28s CPU     21.50s WALL (    1040 calls)

     Called by sum_band:
     sum_band:bec :      0.01s CPU      0.01s WALL (    1040 calls)
     addusdens    :      3.59s CPU      4.59s WALL (      65 calls)

     Called by *egterg:
     h_psi        :     18.77s CPU     18.94s WALL (    3823 calls)
     s_psi        :      0.38s CPU      0.39s WALL (    3823 calls)
     g_psi        :      0.12s CPU      0.13s WALL (    2751 calls)
     cdiaghg      :      0.60s CPU      0.61s WALL (    3695 calls)
     cegterg:over :      0.55s CPU      0.56s WALL (    2751 calls)
     cegterg:upda :      0.44s CPU      0.44s WALL (    2751 calls)
     cegterg:last :      0.22s CPU      0.22s WALL (    1139 calls)

     Called by h_psi:
     h_psi:pot    :     18.71s CPU     18.88s WALL (    3823 calls)
     h_psi:calbec :      0.40s CPU      0.40s WALL (    3823 calls)
     vloc_psi     :     17.89s CPU     18.04s WALL (    3823 calls)
     add_vuspsi   :      0.40s CPU      0.40s WALL (    3823 calls)

     General routines
     calbec       :      0.57s CPU      0.58s WALL (    5423 calls)
     fft          :      1.49s CPU      1.50s WALL (    1097 calls)
     ffts         :      0.04s CPU      0.04s WALL (     136 calls)
     fftw         :     19.44s CPU     19.55s WALL (   62582 calls)
     interpolate  :      0.13s CPU      0.13s WALL (      71 calls)
 
 
     PWSCF        :    56.11s CPU        59.33s WALL

 
   This run was terminated on:  17:14:28   1Apr2021            

=------------------------------------------------------------------------------=
   JOB DONE.
=------------------------------------------------------------------------------=
