
     Program PWSCF v.6.3MaX starts on  2Apr2021 at 16:38:46 

     This program is part of the open-source Quantum ESPRESSO suite
     for quantum simulation of materials; please cite
         "P. Giannozzi et al., J. Phys.:Condens. Matter 21 395502 (2009);
         "P. Giannozzi et al., J. Phys.:Condens. Matter 29 465901 (2017);
          URL http://www.quantum-espresso.org", 
     in publications or presentations arising from this work. More details at
     http://www.quantum-espresso.org/quote

     Serial version
     Waiting for input...
     Reading input from standard input

     Current dimensions of program PWSCF are:
     Max number of different atomic species (ntypx) = 10
     Max number of k-points (npk) =  40000
     Max angular momentum in pseudopotentials (lmaxx) =  3
 
     G-vector sticks info
     --------------------
     sticks:   dense  smooth     PW     G-vecs:    dense   smooth      PW
     Sum        1131     507    183                23447     6965    1555
 


     bravais-lattice index     =            7
     lattice parameter (alat)  =       6.0471  a.u.
     unit-cell volume          =     248.7706 (a.u.)^3
     number of atoms/cell      =            3
     number of atomic types    =            2
     number of electrons       =        22.00
     number of Kohn-Sham states=           15
     kinetic-energy cutoff     =      35.0000  Ry
     charge density cutoff     =     315.0000  Ry
     convergence threshold     =      1.0E-06
     mixing beta               =       0.4000
     number of iterations used =            8  plain     mixing
     Exchange-correlation      = SLA PW PBE PBE ( 1  4  3  4 0 0)
     nstep                     =          100


     celldm(1)=   6.047124  celldm(2)=   0.000000  celldm(3)=   2.250000
     celldm(4)=   0.000000  celldm(5)=   0.000000  celldm(6)=   0.000000

     crystal axes: (cart. coord. in units of alat)
               a(1) = (   0.500000  -0.500000   1.125000 )  
               a(2) = (   0.500000   0.500000   1.125000 )  
               a(3) = (  -0.500000  -0.500000   1.125000 )  

     reciprocal axes: (cart. coord. in units 2 pi/alat)
               b(1) = (  1.000000 -1.000000  0.000000 )  
               b(2) = (  0.000000  1.000000  0.444444 )  
               b(3) = ( -1.000000  0.000000  0.444444 )  


     PseudoPot. # 1 for Ca read from file:
     ../pseudo/Ca.pbe-nsp-van.UPF
     MD5 check sum: cdab9c70410076c6adf7f3c9fd3601e0
     Pseudo is Ultrasoft + core correction, Zval = 10.0
     Generated by new atomic code, or converted to UPF format
     Using radial grid of  845 points,  6 beta functions with: 
                l(1) =   0
                l(2) =   0
                l(3) =   1
                l(4) =   1
                l(5) =   2
                l(6) =   2
     Q(r) pseudized with  6 coefficients,  rinner =    1.200   1.200   1.200
                                                       1.200   1.200

     PseudoPot. # 2 for O  read from file:
     ../pseudo/O.pbe-van_ak.UPF
     MD5 check sum: 572909515f9aa9498032b6eb5528d5f9
     Pseudo is Ultrasoft, Zval =  6.0
     Generated by new atomic code, or converted to UPF format
     Using radial grid of  737 points,  4 beta functions with: 
                l(1) =   0
                l(2) =   0
                l(3) =   1
                l(4) =   1
     Q(r) pseudized with  8 coefficients,  rinner =    0.800   0.800   0.800


     atomic species   valence    mass     pseudopotential
        Ca            10.00    40.07800     Ca( 1.00)
        O              6.00    15.99940     O ( 1.00)

     16 Sym. Ops., with inversion, found


                                    s                        frac. trans.

      isym =  1     identity                                     

 cryst.   s( 1) = (     1          0          0      )
                  (     0          1          0      )
                  (     0          0          1      )

 cart.    s( 1) = (  1.0000000  0.0000000  0.0000000 )
                  (  0.0000000  1.0000000  0.0000000 )
                  (  0.0000000  0.0000000  1.0000000 )


      isym =  2     180 deg rotation - cart. axis [0,0,1]        

 cryst.   s( 2) = (    -1          1          1      )
                  (     0          0          1      )
                  (     0          1          0      )

 cart.    s( 2) = ( -1.0000000  0.0000000  0.0000000 )
                  (  0.0000000 -1.0000000  0.0000000 )
                  (  0.0000000  0.0000000  1.0000000 )


      isym =  3     180 deg rotation - cart. axis [0,1,0]        

 cryst.   s( 3) = (     0         -1          0      )
                  (    -1          0          0      )
                  (     1         -1         -1      )

 cart.    s( 3) = ( -1.0000000  0.0000000  0.0000000 )
                  (  0.0000000  1.0000000  0.0000000 )
                  (  0.0000000  0.0000000 -1.0000000 )


      isym =  4     180 deg rotation - cart. axis [1,0,0]        

 cryst.   s( 4) = (     0          0         -1      )
                  (     1         -1         -1      )
                  (    -1          0          0      )

 cart.    s( 4) = (  1.0000000  0.0000000  0.0000000 )
                  (  0.0000000 -1.0000000  0.0000000 )
                  (  0.0000000  0.0000000 -1.0000000 )


      isym =  5     180 deg rotation - cart. axis [1,1,0]        

 cryst.   s( 5) = (    -1          0          0      )
                  (     0          0         -1      )
                  (     0         -1          0      )

 cart.    s( 5) = (  0.0000000  1.0000000  0.0000000 )
                  (  1.0000000  0.0000000  0.0000000 )
                  (  0.0000000  0.0000000 -1.0000000 )


      isym =  6     180 deg rotation - cart. axis [1,-1,0]       

 cryst.   s( 6) = (     1         -1         -1      )
                  (     0         -1          0      )
                  (     0          0         -1      )

 cart.    s( 6) = (  0.0000000 -1.0000000  0.0000000 )
                  ( -1.0000000  0.0000000  0.0000000 )
                  (  0.0000000  0.0000000 -1.0000000 )


      isym =  7      90 deg rotation - cart. axis [0,0,-1]       

 cryst.   s( 7) = (     0          0          1      )
                  (     1          0          0      )
                  (    -1          1          1      )

 cart.    s( 7) = (  0.0000000  1.0000000  0.0000000 )
                  ( -1.0000000  0.0000000  0.0000000 )
                  (  0.0000000  0.0000000  1.0000000 )


      isym =  8      90 deg rotation - cart. axis [0,0,1]        

 cryst.   s( 8) = (     0          1          0      )
                  (    -1          1          1      )
                  (     1          0          0      )

 cart.    s( 8) = (  0.0000000 -1.0000000  0.0000000 )
                  (  1.0000000  0.0000000  0.0000000 )
                  (  0.0000000  0.0000000  1.0000000 )


      isym =  9     inversion                                    

 cryst.   s( 9) = (    -1          0          0      )
                  (     0         -1          0      )
                  (     0          0         -1      )

 cart.    s( 9) = ( -1.0000000  0.0000000  0.0000000 )
                  (  0.0000000 -1.0000000  0.0000000 )
                  (  0.0000000  0.0000000 -1.0000000 )


      isym = 10     inv. 180 deg rotation - cart. axis [0,0,1]   

 cryst.   s(10) = (     1         -1         -1      )
                  (     0          0         -1      )
                  (     0         -1          0      )

 cart.    s(10) = (  1.0000000  0.0000000  0.0000000 )
                  (  0.0000000  1.0000000  0.0000000 )
                  (  0.0000000  0.0000000 -1.0000000 )


      isym = 11     inv. 180 deg rotation - cart. axis [0,1,0]   

 cryst.   s(11) = (     0          1          0      )
                  (     1          0          0      )
                  (    -1          1          1      )

 cart.    s(11) = (  1.0000000  0.0000000  0.0000000 )
                  (  0.0000000 -1.0000000  0.0000000 )
                  (  0.0000000  0.0000000  1.0000000 )


      isym = 12     inv. 180 deg rotation - cart. axis [1,0,0]   

 cryst.   s(12) = (     0          0          1      )
                  (    -1          1          1      )
                  (     1          0          0      )

 cart.    s(12) = ( -1.0000000  0.0000000  0.0000000 )
                  (  0.0000000  1.0000000  0.0000000 )
                  (  0.0000000  0.0000000  1.0000000 )


      isym = 13     inv. 180 deg rotation - cart. axis [1,1,0]   

 cryst.   s(13) = (     1          0          0      )
                  (     0          0          1      )
                  (     0          1          0      )

 cart.    s(13) = (  0.0000000 -1.0000000  0.0000000 )
                  ( -1.0000000  0.0000000  0.0000000 )
                  (  0.0000000  0.0000000  1.0000000 )


      isym = 14     inv. 180 deg rotation - cart. axis [1,-1,0]  

 cryst.   s(14) = (    -1          1          1      )
                  (     0          1          0      )
                  (     0          0          1      )

 cart.    s(14) = (  0.0000000  1.0000000  0.0000000 )
                  (  1.0000000  0.0000000  0.0000000 )
                  (  0.0000000  0.0000000  1.0000000 )


      isym = 15     inv.  90 deg rotation - cart. axis [0,0,-1]  

 cryst.   s(15) = (     0          0         -1      )
                  (    -1          0          0      )
                  (     1         -1         -1      )

 cart.    s(15) = (  0.0000000 -1.0000000  0.0000000 )
                  (  1.0000000  0.0000000  0.0000000 )
                  (  0.0000000  0.0000000 -1.0000000 )


      isym = 16     inv.  90 deg rotation - cart. axis [0,0,1]   

 cryst.   s(16) = (     0         -1          0      )
                  (     1         -1         -1      )
                  (    -1          0          0      )

 cart.    s(16) = (  0.0000000  1.0000000  0.0000000 )
                  ( -1.0000000  0.0000000  0.0000000 )
                  (  0.0000000  0.0000000 -1.0000000 )


     point group D_4h(4/mmm)
     there are 10 classes
     the character table:

       E     2C4   C2    2C2'  2C2'' i     2S4   s_h   2s_v  2s_d 
A_1g   1.00  1.00  1.00  1.00  1.00  1.00  1.00  1.00  1.00  1.00
A_2g   1.00  1.00  1.00 -1.00 -1.00  1.00  1.00  1.00 -1.00 -1.00
B_1g   1.00 -1.00  1.00  1.00 -1.00  1.00 -1.00  1.00  1.00 -1.00
B_2g   1.00 -1.00  1.00 -1.00  1.00  1.00 -1.00  1.00 -1.00  1.00
E_g    2.00  0.00 -2.00  0.00  0.00  2.00  0.00 -2.00  0.00  0.00
A_1u   1.00  1.00  1.00  1.00  1.00 -1.00 -1.00 -1.00 -1.00 -1.00
A_2u   1.00  1.00  1.00 -1.00 -1.00 -1.00 -1.00 -1.00  1.00  1.00
B_1u   1.00 -1.00  1.00  1.00 -1.00 -1.00  1.00 -1.00 -1.00  1.00
B_2u   1.00 -1.00  1.00 -1.00  1.00 -1.00  1.00 -1.00  1.00 -1.00
E_u    2.00  0.00 -2.00  0.00  0.00 -2.00  0.00  2.00  0.00  0.00

     the symmetry operations in each class and the name of the first element:

     E        1
          identity                                               
     2C4      7    8
           90 deg rotation - cart. axis [0,0,-1]                 
     C2       2
          180 deg rotation - cart. axis [0,0,1]                  
     2C2'     3    4
          180 deg rotation - cart. axis [0,1,0]                  
     2C2''    5    6
          180 deg rotation - cart. axis [1,1,0]                  
     i        9
          inversion                                              
     2S4     15   16
          inv.  90 deg rotation - cart. axis [0,0,-1]            
     s_h     10
          inv. 180 deg rotation - cart. axis [0,0,1]             
     2s_v    11   12
          inv. 180 deg rotation - cart. axis [0,1,0]             
     2s_d    13   14
          inv. 180 deg rotation - cart. axis [1,1,0]             

   Cartesian axes

     site n.     atom                  positions (alat units)
         1           Ca  tau(   1) = (   0.0000000   0.0000000   1.1250000  )
         2           O   tau(   2) = (   0.0000000   0.0000000   2.0055600  )
         3           O   tau(   3) = (   0.0000000   0.0000000   0.2444400  )

   Crystallographic axes

     site n.     atom                  positions (cryst. coord.)
         1           Ca  tau(   1) = (  0.0000000  0.5000000  0.5000000  )
         2           O   tau(   2) = (  0.0000000  0.8913600  0.8913600  )
         3           O   tau(   3) = (  0.0000000  0.1086400  0.1086400  )

     number of k points=    54  gaussian smearing, width (Ry)=  0.0100
                       cart. coord. in units 2pi/alat
        k(    1) = (   0.0000000   0.0000000   0.0000000), wk =   0.0138889
        k(    2) = (  -0.2500000   0.0000000   0.1111111), wk =   0.0277778
        k(    3) = (   0.5000000   0.0000000  -0.2222222), wk =   0.0555556
        k(    4) = (   0.0000000   0.1666667   0.0740741), wk =   0.0555556
        k(    5) = (  -0.2500000   0.1666667   0.1851852), wk =   0.0277778
        k(    6) = (   0.5000000   0.1666667  -0.1481481), wk =   0.1111111
        k(    7) = (   0.2500000   0.1666667  -0.0370370), wk =   0.0277778
        k(    8) = (   0.0000000   0.3333333   0.1481481), wk =   0.0555556
        k(    9) = (  -0.2500000   0.3333333   0.2592593), wk =   0.0277778
        k(   10) = (   0.5000000   0.3333333  -0.0740741), wk =   0.1111111
        k(   11) = (   0.2500000   0.3333333   0.0370370), wk =   0.0277778
        k(   12) = (  -0.2500000  -0.5000000  -0.1111111), wk =   0.0555556
        k(   13) = (   0.5000000  -0.5000000  -0.4444444), wk =   0.0277778
        k(   14) = (   0.1666667  -0.1666667   0.0000000), wk =   0.0277778
        k(   15) = (  -0.0833333  -0.1666667   0.1111111), wk =   0.0277778
        k(   16) = (   0.6666667  -0.1666667  -0.2222222), wk =   0.1111111
        k(   17) = (   0.4166667  -0.1666667  -0.1111111), wk =   0.0277778
        k(   18) = (  -0.0833333   0.0000000   0.1851852), wk =   0.0277778
        k(   19) = (   0.6666667   0.0000000  -0.1481481), wk =   0.0555556
        k(   20) = (   0.4166667   0.0000000  -0.0370370), wk =   0.0277778
        k(   21) = (   0.1666667   0.1666667   0.1481481), wk =   0.0277778
        k(   22) = (  -0.0833333   0.1666667   0.2592593), wk =   0.0277778
        k(   23) = (   0.6666667   0.1666667  -0.0740741), wk =   0.0555556
        k(   24) = (   0.4166667   0.1666667   0.0370370), wk =   0.0277778
        k(   25) = (  -0.0833333  -0.6666667  -0.1111111), wk =   0.0277778
        k(   26) = (   0.6666667  -0.6666667  -0.4444444), wk =   0.0277778
        k(   27) = (   0.4166667  -0.6666667  -0.3333333), wk =   0.0277778
        k(   28) = (  -0.0833333  -0.5000000  -0.0370370), wk =   0.0555556
        k(   29) = (   0.4166667  -0.5000000  -0.2592593), wk =   0.0555556
        k(   30) = (   0.1666667  -0.3333333  -0.0740741), wk =   0.0555556
        k(   31) = (  -0.0833333  -0.3333333   0.0370370), wk =   0.0277778
        k(   32) = (   0.6666667  -0.3333333  -0.2962963), wk =   0.0277778
        k(   33) = (   0.4166667  -0.3333333  -0.1851852), wk =   0.0277778
        k(   34) = (   0.3333333  -0.3333333   0.0000000), wk =   0.0277778
        k(   35) = (   0.0833333  -0.3333333   0.1111111), wk =   0.0277778
        k(   36) = (   0.5833333  -0.3333333  -0.1111111), wk =   0.0277778
        k(   37) = (   0.0833333  -0.1666667   0.1851852), wk =   0.0277778
        k(   38) = (   0.8333333  -0.1666667  -0.1481481), wk =   0.0277778
        k(   39) = (   0.5833333  -0.1666667  -0.0370370), wk =   0.0277778
        k(   40) = (   0.0833333   0.0000000   0.2592593), wk =   0.0277778
        k(   41) = (   0.8333333   0.0000000  -0.0740741), wk =   0.0555556
        k(   42) = (   0.5833333   0.0000000   0.0370370), wk =   0.0277778
        k(   43) = (   0.0833333  -0.8333333  -0.1111111), wk =   0.0277778
        k(   44) = (   0.8333333  -0.8333333  -0.4444444), wk =   0.0277778
        k(   45) = (   0.5833333  -0.8333333  -0.3333333), wk =   0.0277778
        k(   46) = (   0.3333333  -0.6666667  -0.1481481), wk =   0.0277778
        k(   47) = (   0.0833333  -0.6666667  -0.0370370), wk =   0.0277778
        k(   48) = (   0.5833333  -0.6666667  -0.2592593), wk =   0.0277778
        k(   49) = (  -0.7500000   0.6666667   0.1851852), wk =   0.0277778
        k(   50) = (  -0.2500000   0.6666667  -0.0370370), wk =   0.0277778
        k(   51) = (  -0.7500000   0.8333333   0.2592593), wk =   0.0277778
        k(   52) = (  -0.2500000   0.8333333   0.0370370), wk =   0.0277778
        k(   53) = (  -0.7500000   0.0000000  -0.1111111), wk =   0.0277778
        k(   54) = (   0.0000000   0.0000000  -0.4444444), wk =   0.0138889

                       cryst. coord.
        k(    1) = (   0.0000000   0.0000000   0.0000000), wk =   0.0138889
        k(    2) = (   0.0000000   0.0000000   0.2500000), wk =   0.0277778
        k(    3) = (   0.0000000   0.0000000  -0.5000000), wk =   0.0555556
        k(    4) = (   0.0000000   0.1666667   0.0000000), wk =   0.0555556
        k(    5) = (   0.0000000   0.1666667   0.2500000), wk =   0.0277778
        k(    6) = (   0.0000000   0.1666667  -0.5000000), wk =   0.1111111
        k(    7) = (   0.0000000   0.1666667  -0.2500000), wk =   0.0277778
        k(    8) = (   0.0000000   0.3333333   0.0000000), wk =   0.0555556
        k(    9) = (   0.0000000   0.3333333   0.2500000), wk =   0.0277778
        k(   10) = (   0.0000000   0.3333333  -0.5000000), wk =   0.1111111
        k(   11) = (   0.0000000   0.3333333  -0.2500000), wk =   0.0277778
        k(   12) = (   0.0000000  -0.5000000   0.2500000), wk =   0.0555556
        k(   13) = (   0.0000000  -0.5000000  -0.5000000), wk =   0.0277778
        k(   14) = (   0.1666667   0.0000000   0.0000000), wk =   0.0277778
        k(   15) = (   0.1666667   0.0000000   0.2500000), wk =   0.0277778
        k(   16) = (   0.1666667   0.0000000  -0.5000000), wk =   0.1111111
        k(   17) = (   0.1666667  -0.0000000  -0.2500000), wk =   0.0277778
        k(   18) = (   0.1666667   0.1666667   0.2500000), wk =   0.0277778
        k(   19) = (   0.1666667   0.1666667  -0.5000000), wk =   0.0555556
        k(   20) = (   0.1666667   0.1666667  -0.2500000), wk =   0.0277778
        k(   21) = (   0.1666667   0.3333333   0.0000000), wk =   0.0277778
        k(   22) = (   0.1666667   0.3333333   0.2500000), wk =   0.0277778
        k(   23) = (   0.1666667   0.3333333  -0.5000000), wk =   0.0555556
        k(   24) = (   0.1666667   0.3333333  -0.2500000), wk =   0.0277778
        k(   25) = (   0.1666667  -0.5000000   0.2500000), wk =   0.0277778
        k(   26) = (   0.1666667  -0.5000000  -0.5000000), wk =   0.0277778
        k(   27) = (   0.1666667  -0.5000000  -0.2500000), wk =   0.0277778
        k(   28) = (   0.1666667  -0.3333333   0.2500000), wk =   0.0555556
        k(   29) = (   0.1666667  -0.3333333  -0.2500000), wk =   0.0555556
        k(   30) = (   0.1666667  -0.1666667  -0.0000000), wk =   0.0555556
        k(   31) = (   0.1666667  -0.1666667   0.2500000), wk =   0.0277778
        k(   32) = (   0.1666667  -0.1666667  -0.5000000), wk =   0.0277778
        k(   33) = (   0.1666667  -0.1666667  -0.2500000), wk =   0.0277778
        k(   34) = (   0.3333333   0.0000000   0.0000000), wk =   0.0277778
        k(   35) = (   0.3333333   0.0000000   0.2500000), wk =   0.0277778
        k(   36) = (   0.3333333  -0.0000000  -0.2500000), wk =   0.0277778
        k(   37) = (   0.3333333   0.1666667   0.2500000), wk =   0.0277778
        k(   38) = (   0.3333333   0.1666667  -0.5000000), wk =   0.0277778
        k(   39) = (   0.3333333   0.1666667  -0.2500000), wk =   0.0277778
        k(   40) = (   0.3333333   0.3333333   0.2500000), wk =   0.0277778
        k(   41) = (   0.3333333   0.3333333  -0.5000000), wk =   0.0555556
        k(   42) = (   0.3333333   0.3333333  -0.2500000), wk =   0.0277778
        k(   43) = (   0.3333333  -0.5000000   0.2500000), wk =   0.0277778
        k(   44) = (   0.3333333  -0.5000000  -0.5000000), wk =   0.0277778
        k(   45) = (   0.3333333  -0.5000000  -0.2500000), wk =   0.0277778
        k(   46) = (   0.3333333  -0.3333333   0.0000000), wk =   0.0277778
        k(   47) = (   0.3333333  -0.3333333   0.2500000), wk =   0.0277778
        k(   48) = (   0.3333333  -0.3333333  -0.2500000), wk =   0.0277778
        k(   49) = (  -0.5000000   0.1666667   0.2500000), wk =   0.0277778
        k(   50) = (  -0.5000000   0.1666667  -0.2500000), wk =   0.0277778
        k(   51) = (  -0.5000000   0.3333333   0.2500000), wk =   0.0277778
        k(   52) = (  -0.5000000   0.3333333  -0.2500000), wk =   0.0277778
        k(   53) = (  -0.5000000  -0.5000000   0.2500000), wk =   0.0277778
        k(   54) = (  -0.5000000  -0.5000000  -0.5000000), wk =   0.0138889

     Dense  grid:    23447 G-vectors     FFT dimensions: (  45,  45,  45)

     Smooth grid:     6965 G-vectors     FFT dimensions: (  32,  32,  32)

     Dynamical RAM for                 wfc:       0.20 MB

     Dynamical RAM for     wfc (w. buffer):      10.95 MB

     Dynamical RAM for           str. fact:       0.72 MB

     Dynamical RAM for           local pot:       0.00 MB

     Dynamical RAM for          nlocal pot:       0.45 MB

     Dynamical RAM for                qrad:       5.49 MB

     Dynamical RAM for          rho,v,vnew:       3.16 MB

     Dynamical RAM for               rhoin:       1.05 MB

     Dynamical RAM for            rho*nmix:       5.72 MB

     Dynamical RAM for           G-vectors:       1.39 MB

     Dynamical RAM for          h,s,v(r/c):       0.16 MB

     Dynamical RAM for          <psi|beta>:       0.01 MB

     Dynamical RAM for                 psi:       0.80 MB

     Dynamical RAM for                hpsi:       0.80 MB

     Dynamical RAM for                spsi:       0.80 MB

     Dynamical RAM for      wfcinit/wfcrot:       0.49 MB

     Dynamical RAM for           addusdens:      67.26 MB

     Dynamical RAM for          addusforce:      69.24 MB

     Dynamical RAM for         addusstress:      71.91 MB

     Estimated static dynamical RAM per process >      33.49 MB

     Estimated max dynamical RAM per process >     105.40 MB

     Check: negative/imaginary core charge=   -0.000003    0.000000

     Initial potential from superposition of free atoms
     Check: negative starting charge=   -0.000224

     starting charge   21.99454, renormalised to   22.00000

     negative rho (up, down):  2.243E-04 0.000E+00
     Starting wfcs are   18 randomized atomic wfcs

     total cpu time spent up to now is        3.5 secs

     Self-consistent Calculation

     iteration #  1     ecut=    35.00 Ry     beta= 0.40
     Davidson diagonalization with overlap
     ethr =  1.00E-02,  avg # of iterations =  2.0

     negative rho (up, down):  2.323E-04 0.000E+00

     total cpu time spent up to now is        6.5 secs

     total energy              =    -138.95322279 Ry
     Harris-Foulkes estimate   =    -139.06648083 Ry
     estimated scf accuracy    <       0.28037229 Ry

     iteration #  2     ecut=    35.00 Ry     beta= 0.40
     Davidson diagonalization with overlap
     ethr =  1.27E-03,  avg # of iterations =  2.2

     negative rho (up, down):  2.196E-04 0.000E+00

     total cpu time spent up to now is        9.7 secs

     total energy              =    -139.00430167 Ry
     Harris-Foulkes estimate   =    -139.00874769 Ry
     estimated scf accuracy    <       0.02777602 Ry

     iteration #  3     ecut=    35.00 Ry     beta= 0.40
     Davidson diagonalization with overlap
     ethr =  1.26E-04,  avg # of iterations =  2.0

     negative rho (up, down):  2.111E-04 0.000E+00

     total cpu time spent up to now is       12.6 secs

     total energy              =    -139.00536020 Ry
     Harris-Foulkes estimate   =    -139.00617244 Ry
     estimated scf accuracy    <       0.00796476 Ry

     iteration #  4     ecut=    35.00 Ry     beta= 0.40
     Davidson diagonalization with overlap
     ethr =  3.62E-05,  avg # of iterations =  2.8

     negative rho (up, down):  2.119E-04 0.000E+00

     total cpu time spent up to now is       15.6 secs

     total energy              =    -139.00603904 Ry
     Harris-Foulkes estimate   =    -139.00598703 Ry
     estimated scf accuracy    <       0.00010349 Ry

     iteration #  5     ecut=    35.00 Ry     beta= 0.40
     Davidson diagonalization with overlap
     ethr =  4.70E-07,  avg # of iterations =  5.0

     negative rho (up, down):  2.123E-04 0.000E+00

     total cpu time spent up to now is       20.3 secs

     total energy              =    -139.00613648 Ry
     Harris-Foulkes estimate   =    -139.00612300 Ry
     estimated scf accuracy    <       0.00002197 Ry

     iteration #  6     ecut=    35.00 Ry     beta= 0.40
     Davidson diagonalization with overlap
     ethr =  9.99E-08,  avg # of iterations =  2.0

     negative rho (up, down):  2.120E-04 0.000E+00

     total cpu time spent up to now is       23.3 secs

     total energy              =    -139.00614205 Ry
     Harris-Foulkes estimate   =    -139.00613912 Ry
     estimated scf accuracy    <       0.00000106 Ry

     iteration #  7     ecut=    35.00 Ry     beta= 0.40
     Davidson diagonalization with overlap
     ethr =  4.80E-09,  avg # of iterations =  2.5

     negative rho (up, down):  2.118E-04 0.000E+00

     total cpu time spent up to now is       26.7 secs

     End of self-consistent calculation

          k = 0.0000 0.0000 0.0000 (   845 PWs)   bands (ev):

   -31.1244 -12.9500 -12.1581 -11.9680 -11.9680  -6.9100   1.3068   4.5895
     4.5895   6.5513   6.5513  11.3745  11.5435  13.9247  14.3430

     occupation numbers 
     1.0000   1.0000   1.0000   1.0000   1.0000   1.0000   1.0000   1.0000
     1.0000   1.0000   1.0000   0.0000   0.0000   0.0000   0.0000

          k =-0.2500 0.0000 0.1111 (   874 PWs)   bands (ev):

   -31.0840 -13.7968 -12.1195 -11.9180 -11.0971  -7.1211   1.7768   3.5029
     4.0292   6.4673   6.9169  10.9584  12.7485  14.3517  15.0403

     occupation numbers 
     1.0000   1.0000   1.0000   1.0000   1.0000   1.0000   1.0000   1.0000
     1.0000   1.0000   1.0000   0.0000   0.0000   0.0000   0.0000

          k = 0.5000 0.0000-0.2222 (   876 PWs)   bands (ev):

   -31.0431 -14.2956 -12.0776 -11.8669 -10.5554  -7.3364   2.3725   2.4911
     3.5381   6.5217   7.3165  10.3727  13.5873  14.4171  14.9460

     occupation numbers 
     1.0000   1.0000   1.0000   1.0000   1.0000   1.0000   1.0000   1.0000
     1.0000   1.0000   1.0000   0.0000   0.0000   0.0000   0.0000

          k = 0.0000 0.1667 0.0741 (   874 PWs)   bands (ev):

   -31.1043 -13.4647 -12.1386 -11.9432 -11.4442  -7.0153   1.5385   4.0148
     4.2983   6.4952   6.7315  11.2371  12.0363  14.3602  14.9172

     occupation numbers 
     1.0000   1.0000   1.0000   1.0000   1.0000   1.0000   1.0000   1.0000
     1.0000   1.0000   1.0000   0.0000   0.0000   0.0000   0.0000

          k =-0.2500 0.1667 0.1852 (   871 PWs)   bands (ev):

   -31.0652 -13.7607 -12.1329 -12.1141 -11.0143  -7.1983   2.1401   3.2543
     3.9941   6.3617   7.0301  10.5334  13.2766  14.3105  15.0650

     occupation numbers 
     1.0000   1.0000   1.0000   1.0000   1.0000   1.0000   1.0000   1.0000
     1.0000   1.0000   1.0000   0.0000   0.0000   0.0000   0.0000

          k = 0.5000 0.1667-0.1481 (   873 PWs)   bands (ev):

   -31.0277 -14.0895 -12.0609 -12.0263 -10.8619  -7.2764   2.2801   2.9024
     3.6093   6.2079   6.9036  10.5637  14.1410  14.7430  15.1543

     occupation numbers 
     1.0000   1.0000   1.0000   1.0000   1.0000   1.0000   1.0000   1.0000
     1.0000   1.0000   1.0000   0.0000   0.0000   0.0000   0.0000

          k = 0.2500 0.1667-0.0370 (   881 PWs)   bands (ev):

   -31.0673 -13.7776 -12.1162 -12.0757 -11.0385  -7.0855   1.6366   3.3561
     4.1913   5.9642   6.9890  11.3047  13.3459  14.1975  14.7290

     occupation numbers 
     1.0000   1.0000   1.0000   1.0000   1.0000   1.0000   1.0000   1.0000
     1.0000   1.0000   1.0000   0.0000   0.0000   0.0000   0.0000

          k = 0.0000 0.3333 0.1481 (   872 PWs)   bands (ev):

   -31.0636 -14.0643 -12.0992 -11.8926 -10.8104  -7.2280   2.0268   3.0276
     3.7768   6.4733   7.1108  10.6766  13.5212  14.0597  15.0917

     occupation numbers 
     1.0000   1.0000   1.0000   1.0000   1.0000   1.0000   1.0000   1.0000
     1.0000   1.0000   1.0000   0.0000   0.0000   0.0000   0.0000

          k =-0.2500 0.3333 0.2593 (   867 PWs)   bands (ev):

   -31.0293 -13.7762 -12.2538 -12.0874 -11.0774  -7.2464   2.4863   3.1104
     3.7109   6.3239   6.5970  10.4245  14.4079  14.5865  15.2273

     occupation numbers 
     1.0000   1.0000   1.0000   1.0000   1.0000   1.0000   1.0000   1.0000
     1.0000   1.0000   1.0000   0.0000   0.0000   0.0000   0.0000

          k = 0.5000 0.3333-0.0741 (   868 PWs)   bands (ev):

   -30.9968 -13.5047 -12.3310 -12.0275 -11.6409  -7.1554   2.3817   3.3578
     3.8109   5.4003   6.5096  10.8677  14.8273  15.3293  15.5215

     occupation numbers 
     1.0000   1.0000   1.0000   1.0000   1.0000   1.0000   1.0000   1.0000
     1.0000   1.0000   1.0000   0.0000   0.0000   0.0000   0.0000

          k = 0.2500 0.3333 0.0370 (   877 PWs)   bands (ev):

   -31.0314 -13.7989 -12.2404 -12.0371 -11.1022  -7.1322   1.8378   3.2188
     4.0717   5.5741   6.9361  11.1850  14.2620  14.6610  14.7382

     occupation numbers 
     1.0000   1.0000   1.0000   1.0000   1.0000   1.0000   1.0000   1.0000
     1.0000   1.0000   1.0000   0.0000   0.0000   0.0000   0.0000

          k =-0.2500-0.5000-0.1111 (   872 PWs)   bands (ev):

   -31.0123 -13.8394 -12.1809 -12.0440 -11.2103  -7.2161   2.3092   3.1857
     3.6775   5.8181   6.6630  10.7256  14.5866  15.0178  15.3515

     occupation numbers 
     1.0000   1.0000   1.0000   1.0000   1.0000   1.0000   1.0000   1.0000
     1.0000   1.0000   1.0000   0.0000   0.0000   0.0000   0.0000

          k = 0.5000-0.5000-0.4444 (   868 PWs)   bands (ev):

   -30.9812 -12.7678 -12.4923 -12.4618 -12.0057  -7.0943   2.4948   3.3817
     4.0699   4.9664   6.3917  10.9950  14.9369  15.3608  15.6971

     occupation numbers 
     1.0000   1.0000   1.0000   1.0000   1.0000   1.0000   1.0000   1.0000
     1.0000   1.0000   1.0000   0.0000   0.0000   0.0000   0.0000

          k = 0.1667-0.1667 0.0000 (   886 PWs)   bands (ev):

   -31.0862 -13.6176 -12.0989 -12.0940 -11.1865  -7.0285   1.5135   3.6138
     4.3447   6.1104   6.9035  11.4255  12.6868  14.1340  14.9330

     occupation numbers 
     1.0000   1.0000   1.0000   1.0000   1.0000   1.0000   1.0000   1.0000
     1.0000   1.0000   1.0000   0.0000   0.0000   0.0000   0.0000

          k =-0.0833-0.1667 0.1111 (   874 PWs)   bands (ev):

   -31.0987 -13.4985 -12.1451 -12.0107 -11.3431  -7.0603   1.6912   3.8370
     4.2962   6.4520   6.8682  11.0009  12.1776  14.4935  14.8602

     occupation numbers 
     1.0000   1.0000   1.0000   1.0000   1.0000   1.0000   1.0000   1.0000
     1.0000   1.0000   1.0000   0.0000   0.0000   0.0000   0.0000

          k = 0.6667-0.1667-0.2222 (   870 PWs)   bands (ev):

   -31.0461 -13.9226 -12.1109 -12.0837 -10.9157  -7.2567   2.3439   3.0033
     3.7744   6.3840   6.9520  10.4156  14.0027  14.2068  15.1922

     occupation numbers 
     1.0000   1.0000   1.0000   1.0000   1.0000   1.0000   1.0000   1.0000
     1.0000   1.0000   1.0000   0.0000   0.0000   0.0000   0.0000

          k = 0.4167-0.1667-0.1111 (   874 PWs)   bands (ev):

   -31.0334 -14.0515 -12.0558 -12.0416 -10.8830  -7.2300   2.0447   3.0294
     3.7254   6.0268   6.9845  10.7989  14.1240  14.5692  15.1294

     occupation numbers 
     1.0000   1.0000   1.0000   1.0000   1.0000   1.0000   1.0000   1.0000
     1.0000   1.0000   1.0000   0.0000   0.0000   0.0000   0.0000

          k =-0.0833 0.0000 0.1852 (   876 PWs)   bands (ev):

   -31.1158 -13.1026 -12.2186 -11.9666 -11.7717  -7.0996   1.9922   4.2805
     4.3725   6.8220   6.8794  10.5150  11.4155  14.4465  15.1020

     occupation numbers 
     1.0000   1.0000   1.0000   1.0000   1.0000   1.0000   1.0000   1.0000
     1.0000   1.0000   1.0000   0.0000   0.0000   0.0000   0.0000

          k = 0.6667 0.0000-0.1481 (   872 PWs)   bands (ev):

   -31.0612 -14.0415 -12.1682 -11.8963 -10.7877  -7.3213   2.4685   2.9569
     3.7043   6.6686   7.3184  10.3138  13.4729  13.9883  14.9094

     occupation numbers 
     1.0000   1.0000   1.0000   1.0000   1.0000   1.0000   1.0000   1.0000
     1.0000   1.0000   1.0000   0.0000   0.0000   0.0000   0.0000

          k = 0.4167 0.0000-0.0370 (   877 PWs)   bands (ev):

   -31.0495 -14.2396 -12.0671 -11.8725 -10.6383  -7.2445   1.8246   2.9681
     3.6291   6.2756   7.1753  11.1018  13.7815  14.0522  14.7499

     occupation numbers 
     1.0000   1.0000   1.0000   1.0000   1.0000   1.0000   1.0000   1.0000
     1.0000   1.0000   1.0000   0.0000   0.0000   0.0000   0.0000

          k = 0.1667 0.1667 0.1481 (   877 PWs)   bands (ev):

   -31.0844 -13.6042 -12.1396 -12.0987 -11.1665  -7.1267   1.9062   3.5442
     4.1977   6.3828   6.9996  10.7468  12.6160  14.4755  14.9017

     occupation numbers 
     1.0000   1.0000   1.0000   1.0000   1.0000   1.0000   1.0000   1.0000
     1.0000   1.0000   1.0000   0.0000   0.0000   0.0000   0.0000

          k =-0.0833 0.1667 0.2593 (   874 PWs)   bands (ev):

   -31.0948 -13.4580 -12.2471 -12.0179 -11.3148  -7.2269   2.4496   3.7034
     4.1109   6.8620   7.1136  10.2023  12.0296  14.6971  14.8453

     occupation numbers 
     1.0000   1.0000   1.0000   1.0000   1.0000   1.0000   1.0000   1.0000
     1.0000   1.0000   1.0000   0.0000   0.0000   0.0000   0.0000

          k = 0.6667 0.1667-0.0741 (   865 PWs)   bands (ev):

   -31.0443 -13.8966 -12.1630 -12.0970 -10.9083  -7.3055   2.5492   3.1472
     3.6591   6.4853   6.9891  10.5196  13.9480  14.2313  14.6890

     occupation numbers 
     1.0000   1.0000   1.0000   1.0000   1.0000   1.0000   1.0000   1.0000
     1.0000   1.0000   1.0000   0.0000   0.0000   0.0000   0.0000

          k = 0.4167 0.1667 0.0370 (   876 PWs)   bands (ev):

   -31.0337 -14.0521 -12.0500 -12.0425 -10.8897  -7.2050   1.9055   3.1093
     3.7687   5.8764   7.0247  11.0931  14.1003  14.4237  14.9657

     occupation numbers 
     1.0000   1.0000   1.0000   1.0000   1.0000   1.0000   1.0000   1.0000
     1.0000   1.0000   1.0000   0.0000   0.0000   0.0000   0.0000

          k =-0.0833-0.6667-0.1111 (   870 PWs)   bands (ev):

   -31.0564 -14.0002 -12.1761 -11.9540 -10.8141  -7.3239   2.4846   3.0523
     3.6913   6.6265   7.2434  10.3887  13.5859  14.0489  14.7521

     occupation numbers 
     1.0000   1.0000   1.0000   1.0000   1.0000   1.0000   1.0000   1.0000
     1.0000   1.0000   1.0000   0.0000   0.0000   0.0000   0.0000

          k = 0.6667-0.6667-0.4444 (   864 PWs)   bands (ev):

   -31.0121 -13.6102 -12.3675 -12.0899 -11.3040  -7.2264   2.6259   3.4399
     3.4968   5.8155   6.6161  10.7704  14.7333  14.8367  15.2030

     occupation numbers 
     1.0000   1.0000   1.0000   1.0000   1.0000   1.0000   1.0000   1.0000
     1.0000   1.0000   1.0000   0.0000   0.0000   0.0000   0.0000

          k = 0.4167-0.6667-0.3333 (   872 PWs)   bands (ev):

   -31.0017 -13.5476 -12.3528 -12.0214 -11.5322  -7.1497   2.2540   3.3124
     3.8847   5.4771   6.5354  10.8159  14.8107  15.2422  15.5070

     occupation numbers 
     1.0000   1.0000   1.0000   1.0000   1.0000   1.0000   1.0000   1.0000
     1.0000   1.0000   1.0000   0.0000   0.0000   0.0000   0.0000

          k =-0.0833-0.5000-0.0370 (   879 PWs)   bands (ev):

   -31.0390 -14.2391 -12.0819 -11.9101 -10.6424  -7.2928   1.9810   2.9848
     3.5635   6.2387   7.2227  10.9416  13.8778  14.1008  14.9701

     occupation numbers 
     1.0000   1.0000   1.0000   1.0000   1.0000   1.0000   1.0000   1.0000
     1.0000   1.0000   1.0000   0.0000   0.0000   0.0000   0.0000

          k = 0.4167-0.5000-0.2593 (   864 PWs)   bands (ev):

   -30.9854 -13.1153 -12.4384 -12.1560 -11.9483  -7.1339   2.5449   3.5141
     3.6748   5.6592   5.9984  10.6095  15.3534  15.4054  15.6546

     occupation numbers 
     1.0000   1.0000   1.0000   1.0000   1.0000   1.0000   1.0000   1.0000
     1.0000   1.0000   1.0000   0.0000   0.0000   0.0000   0.0000

          k = 0.1667-0.3333-0.0741 (   877 PWs)   bands (ev):

   -31.0479 -13.9378 -12.0873 -12.0578 -10.9379  -7.1595   1.8217   3.1657
     3.9512   5.9338   7.0198  11.0718  13.9638  14.3177  14.7409

     occupation numbers 
     1.0000   1.0000   1.0000   1.0000   1.0000   1.0000   1.0000   1.0000
     1.0000   1.0000   1.0000   0.0000   0.0000   0.0000   0.0000

          k =-0.0833-0.3333 0.0370 (   878 PWs)   bands (ev):

   -31.0603 -14.0361 -12.0689 -11.9468 -10.8535  -7.1566   1.7208   3.1790
     3.8672   6.1570   7.0302  11.2270  13.5991  14.2691  14.5336

     occupation numbers 
     1.0000   1.0000   1.0000   1.0000   1.0000   1.0000   1.0000   1.0000
     1.0000   1.0000   1.0000   0.0000   0.0000   0.0000   0.0000

          k = 0.6667-0.3333-0.2963 (   861 PWs)   bands (ev):

   -31.0139 -13.6486 -12.3475 -12.0333 -11.3074  -7.1698   2.2001   3.2487
     3.8788   5.7136   6.6213  10.6990  14.6480  15.2229  15.2765

     occupation numbers 
     1.0000   1.0000   1.0000   1.0000   1.0000   1.0000   1.0000   1.0000
     1.0000   1.0000   1.0000   0.0000   0.0000   0.0000   0.0000

          k = 0.4167-0.3333-0.1852 (   867 PWs)   bands (ev):

   -31.0014 -13.5449 -12.3577 -12.0284 -11.5216  -7.1744   2.4009   3.3170
     3.7328   5.7939   6.3094  10.5874  14.9249  15.4116  15.5325

     occupation numbers 
     1.0000   1.0000   1.0000   1.0000   1.0000   1.0000   1.0000   1.0000
     1.0000   1.0000   1.0000   0.0000   0.0000   0.0000   0.0000

          k = 0.3333-0.3333 0.0000 (   874 PWs)   bands (ev):

   -31.0145 -13.6536 -12.3408 -12.0215 -11.3220  -7.1213   1.9559   3.2674
     4.1082   5.3224   6.8100  11.1754  14.3942  14.8978  15.3008

     occupation numbers 
     1.0000   1.0000   1.0000   1.0000   1.0000   1.0000   1.0000   1.0000
     1.0000   1.0000   1.0000   0.0000   0.0000   0.0000   0.0000

          k = 0.0833-0.3333 0.1111 (   875 PWs)   bands (ev):

   -31.0597 -14.0330 -12.0819 -11.9477 -10.8439  -7.1949   1.8952   3.1012
     3.8311   6.2825   7.0652  10.8825  13.6402  14.1437  14.9177

     occupation numbers 
     1.0000   1.0000   1.0000   1.0000   1.0000   1.0000   1.0000   1.0000
     1.0000   1.0000   1.0000   0.0000   0.0000   0.0000   0.0000

          k = 0.5833-0.3333-0.1111 (   861 PWs)   bands (ev):

   -31.0008 -13.5286 -12.3679 -12.0455 -11.5246  -7.1891   2.5438   3.4052
     3.5930   5.7130   6.3928  10.6786  14.9213  15.2306  15.6108

     occupation numbers 
     1.0000   1.0000   1.0000   1.0000   1.0000   1.0000   1.0000   1.0000
     1.0000   1.0000   1.0000   0.0000   0.0000   0.0000   0.0000

          k = 0.0833-0.1667 0.1852 (   871 PWs)   bands (ev):

   -31.0969 -13.4829 -12.1892 -12.0139 -11.3273  -7.1463   2.0535   3.7647
     4.2025   6.6536   6.9917  10.5307  12.1081  14.6871  14.8574

     occupation numbers 
     1.0000   1.0000   1.0000   1.0000   1.0000   1.0000   1.0000   1.0000
     1.0000   1.0000   1.0000   0.0000   0.0000   0.0000   0.0000

          k = 0.8333-0.1667-0.1481 (   867 PWs)   bands (ev):

   -31.0808 -13.5604 -12.2412 -12.1081 -11.1422  -7.2680   2.6176   3.4681
     3.9818   6.8586   7.0800  10.1884  12.4807  14.5219  14.7832

     occupation numbers 
     1.0000   1.0000   1.0000   1.0000   1.0000   1.0000   1.0000   1.0000
     1.0000   1.0000   1.0000   0.0000   0.0000   0.0000   0.0000

          k = 0.5833-0.1667-0.0370 (   864 PWs)   bands (ev):

   -31.0316 -14.0291 -12.1094 -12.0499 -10.8717  -7.2901   2.3093   3.1262
     3.5893   6.1864   7.0106  10.7676  14.2163  14.3646  14.8585

     occupation numbers 
     1.0000   1.0000   1.0000   1.0000   1.0000   1.0000   1.0000   1.0000
     1.0000   1.0000   1.0000   0.0000   0.0000   0.0000   0.0000

          k = 0.0833 0.0000 0.2593 (   874 PWs)   bands (ev):

   -31.1134 -13.0690 -12.2821 -11.9703 -11.7668  -7.1921   2.4342   4.1956
     4.2897   7.0108   7.0699  10.1245  11.3231  14.4524  15.2653

     occupation numbers 
     1.0000   1.0000   1.0000   1.0000   1.0000   1.0000   1.0000   1.0000
     1.0000   1.0000   1.0000   0.0000   0.0000   0.0000   0.0000

          k = 0.8333 0.0000-0.0741 (   860 PWs)   bands (ev):

   -31.0971 -13.3768 -12.3425 -11.9543 -11.4016  -7.2958   2.8514   3.7809
     4.0559   7.0525   7.3191  10.0325  11.7652  14.4713  15.0158

     occupation numbers 
     1.0000   1.0000   1.0000   1.0000   1.0000   1.0000   1.0000   1.0000
     1.0000   1.0000   1.0000   0.0000   0.0000   0.0000   0.0000

          k = 0.5833 0.0000 0.0370 (   879 PWs)   bands (ev):

   -31.0471 -14.2178 -12.1367 -11.8762 -10.6136  -7.3385   2.1209   3.0464
     3.5588   6.4550   7.3879  10.7445  13.7735  13.9756  14.5859

     occupation numbers 
     1.0000   1.0000   1.0000   1.0000   1.0000   1.0000   1.0000   1.0000
     1.0000   1.0000   1.0000   0.0000   0.0000   0.0000   0.0000

          k = 0.0833-0.8333-0.1111 (   870 PWs)   bands (ev):

   -31.0930 -13.4293 -12.3051 -12.0215 -11.3086  -7.2817   2.7521   3.6904
     4.0422   7.0092   7.2068  10.0818  11.9635  14.5797  14.8385

     occupation numbers 
     1.0000   1.0000   1.0000   1.0000   1.0000   1.0000   1.0000   1.0000
     1.0000   1.0000   1.0000   0.0000   0.0000   0.0000   0.0000

          k = 0.8333-0.8333-0.4444 (   860 PWs)   bands (ev):

   -31.0790 -13.5278 -12.3048 -12.1128 -11.1373  -7.3136   2.8521   3.5487
     3.8965   7.0325   7.0786  10.2370  12.4157  14.4698  14.5489

     occupation numbers 
     1.0000   1.0000   1.0000   1.0000   1.0000   1.0000   1.0000   1.0000
     1.0000   1.0000   1.0000   0.0000   0.0000   0.0000   0.0000

          k = 0.5833-0.8333-0.3333 (   867 PWs)   bands (ev):

   -31.0319 -14.0348 -12.0979 -12.0483 -10.8698  -7.2921   2.3826   2.9924
     3.6028   6.2923   6.9364  10.5732  14.1617  14.5429  15.0428

     occupation numbers 
     1.0000   1.0000   1.0000   1.0000   1.0000   1.0000   1.0000   1.0000
     1.0000   1.0000   1.0000   0.0000   0.0000   0.0000   0.0000

          k = 0.3333-0.6667-0.1481 (   865 PWs)   bands (ev):

   -31.0127 -13.6272 -12.3609 -12.0669 -11.2988  -7.2220   2.5723   3.2860
     3.5985   6.1360   6.3339  10.5206  14.7032  15.2271  15.2393

     occupation numbers 
     1.0000   1.0000   1.0000   1.0000   1.0000   1.0000   1.0000   1.0000
     1.0000   1.0000   1.0000   0.0000   0.0000   0.0000   0.0000

          k = 0.0833-0.6667-0.0370 (   868 PWs)   bands (ev):

   -31.0558 -13.9911 -12.1980 -11.9553 -10.8128  -7.3336   2.4399   3.2018
     3.6712   6.5928   7.2943  10.5323  13.5588  14.0819  14.4331

     occupation numbers 
     1.0000   1.0000   1.0000   1.0000   1.0000   1.0000   1.0000   1.0000
     1.0000   1.0000   1.0000   0.0000   0.0000   0.0000   0.0000

          k = 0.5833-0.6667-0.2593 (   864 PWs)   bands (ev):

   -31.0010 -13.5380 -12.3632 -12.0370 -11.5190  -7.1888   2.5144   3.3511
     3.6207   5.9884   6.1466  10.5403  14.9503  15.3933  15.5924

     occupation numbers 
     1.0000   1.0000   1.0000   1.0000   1.0000   1.0000   1.0000   1.0000
     1.0000   1.0000   1.0000   0.0000   0.0000   0.0000   0.0000

          k =-0.7500 0.6667 0.1852 (   865 PWs)   bands (ev):

   -31.0302 -13.7885 -12.2482 -12.0626 -11.0838  -7.2097   2.2374   3.1412
     3.8306   6.0464   6.7626  10.5512  14.3924  14.6202  15.2550

     occupation numbers 
     1.0000   1.0000   1.0000   1.0000   1.0000   1.0000   1.0000   1.0000
     1.0000   1.0000   1.0000   0.0000   0.0000   0.0000   0.0000

          k =-0.2500 0.6667-0.0370 (   863 PWs)   bands (ev):

   -31.0281 -13.7525 -12.2607 -12.1308 -11.0777  -7.2704   2.6222   3.2680
     3.5866   6.1914   6.7528  10.6563  14.4742  14.5371  14.7208

     occupation numbers 
     1.0000   1.0000   1.0000   1.0000   1.0000   1.0000   1.0000   1.0000
     1.0000   1.0000   1.0000   0.0000   0.0000   0.0000   0.0000

          k =-0.7500 0.8333 0.2593 (   871 PWs)   bands (ev):

   -31.0637 -13.7427 -12.1700 -12.1249 -11.0029  -7.2587   2.4720   3.2083
     3.8860   6.6091   7.0115  10.3061  13.2207  14.3041  14.9976

     occupation numbers 
     1.0000   1.0000   1.0000   1.0000   1.0000   1.0000   1.0000   1.0000
     1.0000   1.0000   1.0000   0.0000   0.0000   0.0000   0.0000

          k =-0.2500 0.8333 0.0370 (   858 PWs)   bands (ev):

   -31.0616 -13.7092 -12.2386 -12.1333 -10.9955  -7.3131   2.7263   3.3425
     3.7667   6.7569   7.0370  10.4002  13.1441  14.3338  14.5420

     occupation numbers 
     1.0000   1.0000   1.0000   1.0000   1.0000   1.0000   1.0000   1.0000
     1.0000   1.0000   1.0000   0.0000   0.0000   0.0000   0.0000

          k =-0.7500 0.0000-0.1111 (   865 PWs)   bands (ev):

   -31.0792 -13.7465 -12.2564 -11.9255 -11.0584  -7.3079   2.6511   3.3612
     3.8766   6.8424   7.3196  10.2022  12.5800  14.4088  14.6894

     occupation numbers 
     1.0000   1.0000   1.0000   1.0000   1.0000   1.0000   1.0000   1.0000
     1.0000   1.0000   1.0000   0.0000   0.0000   0.0000   0.0000

          k = 0.0000 0.0000-0.4444 (   880 PWs)   bands (ev):

   -31.1149 -12.7630 -12.4305 -11.9831 -11.9831  -7.2848   3.0566   4.2428
     4.2428   7.3151   7.3151   9.7983  11.0008  14.2880  15.1867

     occupation numbers 
     1.0000   1.0000   1.0000   1.0000   1.0000   1.0000   1.0000   1.0000
     1.0000   1.0000   1.0000   0.0000   0.0000   0.0000   0.0000

     the Fermi energy is     8.5684 ev

!    total energy              =    -139.00614361 Ry
     Harris-Foulkes estimate   =    -139.00614229 Ry
     estimated scf accuracy    <       0.00000013 Ry

     The total energy is the sum of the following terms:

     one-electron contribution =     -40.32502135 Ry
     hartree contribution      =      31.40255262 Ry
     xc contribution           =     -25.96052059 Ry
     ewald contribution        =    -104.12315429 Ry
     smearing contrib. (-TS)   =      -0.00000000 Ry

     convergence has been achieved in   7 iterations

     negative rho (up, down):  2.118E-04 0.000E+00

     Forces acting on atoms (cartesian axes, Ry/au):

     atom    1 type  1   force =     0.00000000    0.00000000    0.00000000
     atom    2 type  2   force =     0.00000000   -0.00000000    0.02897094
     atom    3 type  2   force =     0.00000000   -0.00000000   -0.02897094
     The non-local contrib.  to forces
     atom    1 type  1   force =     0.00000000    0.00000000    0.00000000
     atom    2 type  2   force =     0.00000000    0.00000000    1.61777871
     atom    3 type  2   force =     0.00000000    0.00000000   -1.61777871
     The ionic contribution  to forces
     atom    1 type  1   force =     0.00000000    0.00000000   -0.00000000
     atom    2 type  2   force =    -0.00000000    0.00000000   -7.96894326
     atom    3 type  2   force =     0.00000000   -0.00000000    7.96894326
     The local contribution  to forces
     atom    1 type  1   force =     0.00000000   -0.00000000    0.00000000
     atom    2 type  2   force =     0.00000000   -0.00000000    6.38003622
     atom    3 type  2   force =     0.00000000   -0.00000000   -6.38003622
     The core correction contribution to forces
     atom    1 type  1   force =     0.00000000   -0.00000000   -0.00000000
     atom    2 type  2   force =     0.00000000    0.00000000    0.00000000
     atom    3 type  2   force =     0.00000000    0.00000000    0.00000000
     The Hubbard contrib.    to forces
     atom    1 type  1   force =     0.00000000    0.00000000    0.00000000
     atom    2 type  2   force =     0.00000000    0.00000000    0.00000000
     atom    3 type  2   force =     0.00000000    0.00000000    0.00000000
     The SCF correction term to forces
     atom    1 type  1   force =     0.00000000    0.00000000    0.00000000
     atom    2 type  2   force =    -0.00000000    0.00000000    0.00009927
     atom    3 type  2   force =     0.00000000   -0.00000000   -0.00009927

     Total force =     0.040971     Total SCF correction =     0.000140


     Computing stress (Cartesian axis) and pressure


     negative rho (up, down):  2.118E-04 0.000E+00
          total   stress  (Ry/bohr**3)                   (kbar)     P=   32.46
   0.00046343  -0.00000000  -0.00000000         68.17     -0.00     -0.00
  -0.00000000   0.00046343   0.00000000         -0.00     68.17      0.00
  -0.00000000   0.00000000  -0.00026483         -0.00      0.00    -38.96

     kinetic stress (kbar)  16388.96      0.00      0.00
                                0.00  16388.96     -0.00
                                0.00     -0.00  14568.19

     local   stress (kbar) -13628.92      0.00      0.00
                                0.00 -13628.92      0.00
                                0.00      0.00   1504.60

     nonloc. stress (kbar)  12247.69     -0.00     -0.00
                               -0.00  12247.69      0.00
                               -0.00      0.00  11413.75

     hartree stress (kbar)   8005.48     -0.00     -0.00
                               -0.00   8005.48     -0.00
                               -0.00     -0.00   2558.25

     exc-cor stress (kbar)  -3803.99      0.00      0.00
                                0.00  -3803.99     -0.00
                                0.00     -0.00  -3810.17

     corecor stress (kbar)   -994.75     -0.00      0.00
                               -0.00   -994.75     -0.00
                                0.00     -0.00   -995.22

     ewald   stress (kbar) -18146.29      0.00     -0.00
                                0.00 -18146.29     -0.00
                               -0.00     -0.00 -25278.36

     hubbard stress (kbar)      0.00      0.00      0.00
                                0.00      0.00      0.00
                                0.00      0.00      0.00

     london  stress (kbar)      0.00      0.00      0.00
                                0.00      0.00      0.00
                                0.00      0.00      0.00

     DFT-D3  stress (kbar)      0.00      0.00      0.00
                                0.00      0.00      0.00
                                0.00      0.00      0.00

     XDM     stress (kbar)      0.00      0.00      0.00
                                0.00      0.00      0.00
                                0.00      0.00      0.00

     dft-nl  stress (kbar)      0.00      0.00      0.00
                                0.00      0.00      0.00
                                0.00      0.00      0.00

     TS-vdW  stress (kbar)      0.00      0.00      0.00
                                0.00      0.00      0.00
                                0.00      0.00      0.00



     BFGS Geometry Optimization

     number of scf cycles    =   1
     number of bfgs steps    =   0

     enthalpy new            =    -138.8708549277 Ry

     new trust radius        =       0.0637726387 bohr
     new conv_thr            =       0.0000010000 Ry

     new unit-cell volume =    242.76254 a.u.^3 (    35.97370 Ang^3 )
     density =      3.32705 g/cm^3

CELL_PARAMETERS (alat=  6.04712363)
   0.498995048  -0.498995048   1.102256495
   0.498995048   0.498995048   1.102256495
  -0.498995048  -0.498995048   1.102256495

ATOMIC_POSITIONS (crystal)
Ca       0.000000000   0.500000000   0.500000000
O        0.000000000   0.893489272   0.893489272
O        0.000000000   0.106510728   0.106510728



     Writing output data file CaO2.save/
     Check: negative starting charge=   -0.000224
     NEW-OLD atomic charge density approx. for the potential

     Check: negative/imaginary core charge=   -0.000003    0.000000
     Check: negative starting charge=   -0.000220

     negative rho (up, down):  2.022E-04 0.000E+00
     extrapolated charge   21.45566, renormalised to   22.00000

     total cpu time spent up to now is       30.6 secs

     Self-consistent Calculation

     iteration #  1     ecut=    35.00 Ry     beta= 0.40
     Davidson diagonalization with overlap
     ethr =  1.00E-06,  avg # of iterations =  9.2

     negative rho (up, down):  1.945E-04 0.000E+00

     total cpu time spent up to now is       37.0 secs

     total energy              =    -138.96793165 Ry
     Harris-Foulkes estimate   =    -139.76594167 Ry
     estimated scf accuracy    <       0.03679981 Ry

     iteration #  2     ecut=    35.00 Ry     beta= 0.40
     Davidson diagonalization with overlap
     ethr =  1.67E-04,  avg # of iterations =  3.4

     negative rho (up, down):  1.945E-04 0.000E+00

     total cpu time spent up to now is       41.3 secs

     total energy              =    -139.00599727 Ry
     Harris-Foulkes estimate   =    -139.01705079 Ry
     estimated scf accuracy    <       0.03795307 Ry

     iteration #  3     ecut=    35.00 Ry     beta= 0.40
     Davidson diagonalization with overlap
     ethr =  1.67E-04,  avg # of iterations =  1.2

     negative rho (up, down):  1.995E-04 0.000E+00

     total cpu time spent up to now is       44.0 secs

     total energy              =    -139.00463086 Ry
     Harris-Foulkes estimate   =    -139.00783734 Ry
     estimated scf accuracy    <       0.01014530 Ry

     iteration #  4     ecut=    35.00 Ry     beta= 0.40
     Davidson diagonalization with overlap
     ethr =  4.61E-05,  avg # of iterations =  2.8

     negative rho (up, down):  2.039E-04 0.000E+00

     total cpu time spent up to now is       47.2 secs

     total energy              =    -139.00628631 Ry
     Harris-Foulkes estimate   =    -139.00621320 Ry
     estimated scf accuracy    <       0.00083670 Ry

     iteration #  5     ecut=    35.00 Ry     beta= 0.40
     Davidson diagonalization with overlap
     ethr =  3.80E-06,  avg # of iterations =  2.2

     negative rho (up, down):  2.075E-04 0.000E+00

     total cpu time spent up to now is       50.0 secs

     total energy              =    -139.00574438 Ry
     Harris-Foulkes estimate   =    -139.00633468 Ry
     estimated scf accuracy    <       0.00118930 Ry

     iteration #  6     ecut=    35.00 Ry     beta= 0.40
     Davidson diagonalization with overlap
     ethr =  3.80E-06,  avg # of iterations =  2.9

     negative rho (up, down):  2.067E-04 0.000E+00

     total cpu time spent up to now is       53.3 secs

     total energy              =    -139.00595359 Ry
     Harris-Foulkes estimate   =    -139.00595676 Ry
     estimated scf accuracy    <       0.00000767 Ry

     iteration #  7     ecut=    35.00 Ry     beta= 0.40
     Davidson diagonalization with overlap
     ethr =  3.49E-08,  avg # of iterations =  4.0

     negative rho (up, down):  2.055E-04 0.000E+00

     total cpu time spent up to now is       57.2 secs

     End of self-consistent calculation

          k = 0.0000 0.0000 0.0000 (   845 PWs)   bands (ev):

   -30.7881 -13.2438 -11.7943 -11.6401 -11.6401  -6.3202   1.3875   4.6166
     4.6166   6.9957   6.9957  11.6675  12.7221  14.3976  14.6161

     occupation numbers 
     1.0000   1.0000   1.0000   1.0000   1.0000   1.0000   1.0000   1.0000
     1.0000   1.0000   1.0000   0.0000   0.0000   0.0000   0.0000

          k =-0.2505 0.0000 0.1134 (   874 PWs)   bands (ev):

   -30.7449 -13.9246 -11.7636 -11.5867 -10.9446  -6.5425   1.8680   3.5598
     4.0404   6.9312   7.3801  11.9714  13.0645  14.7954  15.4773

     occupation numbers 
     1.0000   1.0000   1.0000   1.0000   1.0000   1.0000   1.0000   1.0000
     1.0000   1.0000   1.0000   0.0000   0.0000   0.0000   0.0000

          k = 0.5010 0.0000-0.2268 (   876 PWs)   bands (ev):

   -30.7012 -14.3901 -11.7296 -11.5322 -10.4475  -6.7665   2.4987   2.5415
     3.5345   7.0097   7.8052  11.3000  13.9822  14.8271  15.2885

     occupation numbers 
     1.0000   1.0000   1.0000   1.0000   1.0000   1.0000   1.0000   1.0000
     1.0000   1.0000   1.0000   0.0000   0.0000   0.0000   0.0000

          k = 0.0000 0.1670 0.0756 (   874 PWs)   bands (ev):

   -30.7666 -13.6316 -11.7788 -11.6136 -11.2475  -6.4314   1.6245   4.0589
     4.3174   6.9485   7.1844  12.2832  12.3664  14.8251  15.2829

     occupation numbers 
     1.0000   1.0000   1.0000   1.0000   1.0000   1.0000   1.0000   1.0000
     1.0000   1.0000   1.0000   0.0000   0.0000   0.0000   0.0000

          k =-0.2505 0.1670 0.1890 (   871 PWs)   bands (ev):

   -30.7249 -13.8926 -11.8051 -11.7705 -10.8592  -6.6252   2.2552   3.2929
     4.0432   6.8110   7.5203  11.4846  13.5821  14.7121  15.4687

     occupation numbers 
     1.0000   1.0000   1.0000   1.0000   1.0000   1.0000   1.0000   1.0000
     1.0000   1.0000   1.0000   0.0000   0.0000   0.0000   0.0000

          k = 0.5010 0.1670-0.1512 (   873 PWs)   bands (ev):

   -30.6852 -14.1878 -11.7133 -11.6987 -10.7585  -6.7022   2.3971   2.9732
     3.6239   6.6745   7.3869  11.5462  14.5524  15.1791  15.5089

     occupation numbers 
     1.0000   1.0000   1.0000   1.0000   1.0000   1.0000   1.0000   1.0000
     1.0000   1.0000   1.0000   0.0000   0.0000   0.0000   0.0000

          k = 0.2505 0.1670-0.0378 (   881 PWs)   bands (ev):

   -30.7275 -13.9108 -11.7944 -11.7191 -10.8769  -6.5007   1.7154   3.3934
     4.2331   6.3925   7.4812  12.4411  13.6680  14.6198  15.1127

     occupation numbers 
     1.0000   1.0000   1.0000   1.0000   1.0000   1.0000   1.0000   1.0000
     1.0000   1.0000   1.0000   0.0000   0.0000   0.0000   0.0000

          k = 0.0000 0.3340 0.1512 (   872 PWs)   bands (ev):

   -30.7231 -14.1716 -11.7472 -11.5596 -10.6838  -6.6541   2.1226   3.0949
     3.7804   6.9489   7.5859  11.6438  13.8773  14.4367  15.6440

     occupation numbers 
     1.0000   1.0000   1.0000   1.0000   1.0000   1.0000   1.0000   1.0000
     1.0000   1.0000   1.0000   0.0000   0.0000   0.0000   0.0000

          k =-0.2505 0.3340 0.2646 (   867 PWs)   bands (ev):

   -30.6870 -13.8981 -11.9392 -11.7404 -10.9459  -6.6731   2.6237   3.1512
     3.7726   6.7883   7.0685  11.3934  14.7977  14.9061  15.6994

     occupation numbers 
     1.0000   1.0000   1.0000   1.0000   1.0000   1.0000   1.0000   1.0000
     1.0000   1.0000   1.0000   0.0000   0.0000   0.0000   0.0000

          k = 0.5010 0.3340-0.0756 (   868 PWs)   bands (ev):

   -30.6531 -13.6304 -12.0162 -11.6841 -11.5217  -6.5730   2.5122   3.4310
     3.8697   5.8145   7.0078  11.9653  15.3033  15.7153  15.8622

     occupation numbers 
     1.0000   1.0000   1.0000   1.0000   1.0000   1.0000   1.0000   1.0000
     1.0000   1.0000   1.0000   0.0000   0.0000   0.0000   0.0000

          k = 0.2505 0.3340 0.0378 (   877 PWs)   bands (ev):

   -30.6896 -13.9217 -11.9226 -11.6845 -10.9660  -6.5480   1.9331   3.2642
     4.1239   5.9905   7.4453  12.3241  14.6969  15.0124  15.1043

     occupation numbers 
     1.0000   1.0000   1.0000   1.0000   1.0000   1.0000   1.0000   1.0000
     1.0000   1.0000   1.0000   0.0000   0.0000   0.0000   0.0000

          k =-0.2505-0.5010-0.1134 (   872 PWs)   bands (ev):

   -30.6692 -13.9455 -11.8599 -11.6968 -11.1070  -6.6378   2.4345   3.2571
     3.7133   6.2560   7.1541  11.7646  15.0336  15.4679  15.7148

     occupation numbers 
     1.0000   1.0000   1.0000   1.0000   1.0000   1.0000   1.0000   1.0000
     1.0000   1.0000   1.0000   0.0000   0.0000   0.0000   0.0000

          k = 0.5010-0.5010-0.4536 (   868 PWs)   bands (ev):

   -30.6369 -13.0953 -12.1865 -12.1494 -11.6579  -6.5078   2.6271   3.4684
     4.1377   5.3662   6.8961  12.1511  15.3676  15.6466  16.0718

     occupation numbers 
     1.0000   1.0000   1.0000   1.0000   1.0000   1.0000   1.0000   1.0000
     1.0000   1.0000   1.0000   0.0000   0.0000   0.0000   0.0000

          k = 0.1670-0.1670 0.0000 (   886 PWs)   bands (ev):

   -30.7476 -13.7700 -11.7701 -11.7396 -11.0021  -6.4417   1.5891   3.6446
     4.3848   6.5405   7.3833  12.5921  12.9943  14.5477  15.2353

     occupation numbers 
     1.0000   1.0000   1.0000   1.0000   1.0000   1.0000   1.0000   1.0000
     1.0000   1.0000   1.0000   0.0000   0.0000   0.0000   0.0000

          k =-0.0835-0.1670 0.1134 (   874 PWs)   bands (ev):

   -30.7606 -13.6615 -11.7877 -11.6856 -11.1490  -6.4804   1.7873   3.8718
     4.3304   6.8979   7.3370  12.0171  12.4753  14.9832  15.1953

     occupation numbers 
     1.0000   1.0000   1.0000   1.0000   1.0000   1.0000   1.0000   1.0000
     1.0000   1.0000   1.0000   0.0000   0.0000   0.0000   0.0000

          k = 0.6680-0.1670-0.2268 (   870 PWs)   bands (ev):

   -30.7046 -14.0364 -11.7789 -11.7469 -10.7853  -6.6849   2.4689   3.0523
     3.8113   6.8483   7.4362  11.3613  14.3470  14.5757  15.6753

     occupation numbers 
     1.0000   1.0000   1.0000   1.0000   1.0000   1.0000   1.0000   1.0000
     1.0000   1.0000   1.0000   0.0000   0.0000   0.0000   0.0000

          k = 0.4175-0.1670-0.1134 (   874 PWs)   bands (ev):

   -30.6914 -14.1541 -11.7204 -11.7015 -10.7695  -6.6526   2.1451   3.0956
     3.7482   6.4756   7.4791  11.8220  14.5456  14.9675  15.5535

     occupation numbers 
     1.0000   1.0000   1.0000   1.0000   1.0000   1.0000   1.0000   1.0000
     1.0000   1.0000   1.0000   0.0000   0.0000   0.0000   0.0000

          k =-0.0835 0.0000 0.1890 (   876 PWs)   bands (ev):

   -30.7783 -13.3310 -11.8708 -11.6393 -11.5140  -6.5263   2.1200   4.3180
     4.4032   7.2860   7.3432  11.4664  11.6933  14.7554  15.7431

     occupation numbers 
     1.0000   1.0000   1.0000   1.0000   1.0000   1.0000   1.0000   1.0000
     1.0000   1.0000   1.0000   0.0000   0.0000   0.0000   0.0000

          k = 0.6680 0.0000-0.1512 (   872 PWs)   bands (ev):

   -30.7201 -14.1475 -11.8247 -11.5642 -10.6698  -6.7505   2.6074   3.0008
     3.7103   7.1658   7.8104  11.2760  13.7911  14.3796  15.4442

     occupation numbers 
     1.0000   1.0000   1.0000   1.0000   1.0000   1.0000   1.0000   1.0000
     1.0000   1.0000   1.0000   0.0000   0.0000   0.0000   0.0000

          k = 0.4175 0.0000-0.0378 (   877 PWs)   bands (ev):

   -30.7082 -14.3372 -11.7171 -11.5379 -10.5225  -6.6647   1.8973   3.0398
     3.6267   6.7592   7.6521  12.2261  14.1992  14.4394  15.0930

     occupation numbers 
     1.0000   1.0000   1.0000   1.0000   1.0000   1.0000   1.0000   1.0000
     1.0000   1.0000   1.0000   0.0000   0.0000   0.0000   0.0000

          k = 0.1670 0.1670 0.1512 (   877 PWs)   bands (ev):

   -30.7453 -13.7550 -11.7852 -11.7758 -10.9881  -6.5508   2.0125   3.5760
     4.2455   6.8255   7.4837  11.7220  12.9127  14.9301  15.2237

     occupation numbers 
     1.0000   1.0000   1.0000   1.0000   1.0000   1.0000   1.0000   1.0000
     1.0000   1.0000   1.0000   0.0000   0.0000   0.0000   0.0000

          k =-0.0835 0.1670 0.2646 (   874 PWs)   bands (ev):

   -30.7557 -13.6178 -11.9028 -11.6947 -11.1339  -6.6567   2.5940   3.7354
     4.1493   7.3398   7.6013  11.1497  12.3047  15.1182  15.2265

     occupation numbers 
     1.0000   1.0000   1.0000   1.0000   1.0000   1.0000   1.0000   1.0000
     1.0000   1.0000   1.0000   0.0000   0.0000   0.0000   0.0000

          k = 0.6680 0.1670-0.0756 (   865 PWs)   bands (ev):

   -30.7024 -14.0095 -11.8230 -11.7783 -10.7829  -6.7301   2.6742   3.1948
     3.6952   6.9764   7.4813  11.5785  14.2673  14.6022  15.1466

     occupation numbers 
     1.0000   1.0000   1.0000   1.0000   1.0000   1.0000   1.0000   1.0000
     1.0000   1.0000   1.0000   0.0000   0.0000   0.0000   0.0000

          k = 0.4175 0.1670 0.0378 (   876 PWs)   bands (ev):

   -30.6918 -14.1548 -11.7173 -11.6992 -10.7755  -6.6234   1.9960   3.1704
     3.7920   6.3201   7.5261  12.2240  14.5325  14.8037  15.3056

     occupation numbers 
     1.0000   1.0000   1.0000   1.0000   1.0000   1.0000   1.0000   1.0000
     1.0000   1.0000   1.0000   0.0000   0.0000   0.0000   0.0000

          k =-0.0835-0.6680-0.1134 (   870 PWs)   bands (ev):

   -30.7150 -14.1077 -11.8347 -11.6267 -10.6943  -6.7512   2.6148   3.1006
     3.7065   7.1270   7.7357  11.3925  13.9016  14.4334  15.2492

     occupation numbers 
     1.0000   1.0000   1.0000   1.0000   1.0000   1.0000   1.0000   1.0000
     1.0000   1.0000   1.0000   0.0000   0.0000   0.0000   0.0000

          k = 0.6680-0.6680-0.4536 (   864 PWs)   bands (ev):

   -30.6689 -13.7396 -12.0571 -11.7474 -11.1741  -6.6459   2.7525   3.4829
     3.5724   6.2574   7.1207  11.9035  15.1690  15.2025  15.5214

     occupation numbers 
     1.0000   1.0000   1.0000   1.0000   1.0000   1.0000   1.0000   1.0000
     1.0000   1.0000   1.0000   0.0000   0.0000   0.0000   0.0000

          k = 0.4175-0.6680-0.3402 (   872 PWs)   bands (ev):

   -30.6583 -13.6761 -12.0388 -11.6746 -11.4065  -6.5687   2.3829   3.3741
     3.9554   5.8870   7.0290  11.8658  15.2899  15.6768  15.8285

     occupation numbers 
     1.0000   1.0000   1.0000   1.0000   1.0000   1.0000   1.0000   1.0000
     1.0000   1.0000   1.0000   0.0000   0.0000   0.0000   0.0000

          k =-0.0835-0.5010-0.0378 (   879 PWs)   bands (ev):

   -30.6969 -14.3342 -11.7362 -11.5774 -10.5358  -6.7145   2.0683   3.0551
     3.5647   6.7240   7.7138  12.0597  14.2641  14.5410  15.2940

     occupation numbers 
     1.0000   1.0000   1.0000   1.0000   1.0000   1.0000   1.0000   1.0000
     1.0000   1.0000   1.0000   0.0000   0.0000   0.0000   0.0000

          k = 0.4175-0.5010-0.2646 (   864 PWs)   bands (ev):

   -30.6412 -13.2988 -12.1278 -11.9569 -11.6308  -6.5548   2.6902   3.5996
     3.7585   6.0815   6.4517  11.6158  15.6954  15.8735  16.0445

     occupation numbers 
     1.0000   1.0000   1.0000   1.0000   1.0000   1.0000   1.0000   1.0000
     1.0000   1.0000   1.0000   0.0000   0.0000   0.0000   0.0000

          k = 0.1670-0.3340-0.0756 (   877 PWs)   bands (ev):

   -30.7069 -14.0525 -11.7649 -11.7051 -10.8020  -6.5783   1.9092   3.2159
     3.9870   6.3686   7.5177  12.1498  14.3556  14.6730  15.1871

     occupation numbers 
     1.0000   1.0000   1.0000   1.0000   1.0000   1.0000   1.0000   1.0000
     1.0000   1.0000   1.0000   0.0000   0.0000   0.0000   0.0000

          k =-0.0835-0.3340 0.0378 (   878 PWs)   bands (ev):

   -30.7199 -14.1457 -11.7148 -11.6175 -10.7203  -6.5741   1.7949   3.2378
     3.8810   6.6125   7.5109  12.3573  13.9737  14.6257  14.9352

     occupation numbers 
     1.0000   1.0000   1.0000   1.0000   1.0000   1.0000   1.0000   1.0000
     1.0000   1.0000   1.0000   0.0000   0.0000   0.0000   0.0000

          k = 0.6680-0.3340-0.3024 (   861 PWs)   bands (ev):

   -30.6711 -13.7777 -12.0328 -11.6834 -11.1757  -6.5916   2.3252   3.2993
     3.9534   6.1317   7.1110  11.7009  15.0679  15.6134  15.7459

     occupation numbers 
     1.0000   1.0000   1.0000   1.0000   1.0000   1.0000   1.0000   1.0000
     1.0000   1.0000   1.0000   0.0000   0.0000   0.0000   0.0000

          k = 0.4175-0.3340-0.1890 (   867 PWs)   bands (ev):

   -30.6579 -13.6736 -12.0450 -11.6836 -11.3936  -6.5973   2.5408   3.3796
     3.8063   6.2224   6.7790  11.5759  15.3514  15.8337  15.9710

     occupation numbers 
     1.0000   1.0000   1.0000   1.0000   1.0000   1.0000   1.0000   1.0000
     1.0000   1.0000   1.0000   0.0000   0.0000   0.0000   0.0000

          k = 0.3340-0.3340 0.0000 (   874 PWs)   bands (ev):

   -30.6719 -13.7827 -12.0247 -11.6703 -11.1904  -6.5359   2.0638   3.3172
     4.1673   5.7307   7.3225  12.3380  14.8239  15.2684  15.6443

     occupation numbers 
     1.0000   1.0000   1.0000   1.0000   1.0000   1.0000   1.0000   1.0000
     1.0000   1.0000   1.0000   0.0000   0.0000   0.0000   0.0000

          k = 0.0835-0.3340 0.1134 (   875 PWs)   bands (ev):

   -30.7191 -14.1423 -11.7289 -11.6186 -10.7127  -6.6176   1.9828   3.1632
     3.8450   6.7425   7.5470  11.8967  14.0092  14.5113  15.4212

     occupation numbers 
     1.0000   1.0000   1.0000   1.0000   1.0000   1.0000   1.0000   1.0000
     1.0000   1.0000   1.0000   0.0000   0.0000   0.0000   0.0000

          k = 0.5845-0.3340-0.1134 (   861 PWs)   bands (ev):

   -30.6572 -13.6575 -12.0581 -11.7009 -11.3982  -6.6098   2.6808   3.4792
     3.6510   6.1434   6.8776  11.7294  15.3606  15.6735  15.9540

     occupation numbers 
     1.0000   1.0000   1.0000   1.0000   1.0000   1.0000   1.0000   1.0000
     1.0000   1.0000   1.0000   0.0000   0.0000   0.0000   0.0000

          k = 0.0835-0.1670 0.1890 (   871 PWs)   bands (ev):

   -30.7583 -13.6441 -11.8375 -11.6897 -11.1396  -6.5735   2.1755   3.8002
     4.2394   7.1128   7.4688  11.4795  12.3944  15.1298  15.2197

     occupation numbers 
     1.0000   1.0000   1.0000   1.0000   1.0000   1.0000   1.0000   1.0000
     1.0000   1.0000   1.0000   0.0000   0.0000   0.0000   0.0000

          k = 0.8350-0.1670-0.1512 (   867 PWs)   bands (ev):

   -30.7408 -13.7095 -11.8996 -11.7874 -10.9750  -6.6970   2.7658   3.4888
     4.0339   7.3400   7.5771  11.1585  12.7572  14.9230  15.1819

     occupation numbers 
     1.0000   1.0000   1.0000   1.0000   1.0000   1.0000   1.0000   1.0000
     1.0000   1.0000   1.0000   0.0000   0.0000   0.0000   0.0000

          k = 0.5845-0.1670-0.0378 (   864 PWs)   bands (ev):

   -30.6891 -14.1306 -11.7669 -11.7263 -10.7632  -6.7121   2.4202   3.1907
     3.6093   6.6627   7.5079  11.8785  14.6193  14.7759  15.1819

     occupation numbers 
     1.0000   1.0000   1.0000   1.0000   1.0000   1.0000   1.0000   1.0000
     1.0000   1.0000   1.0000   0.0000   0.0000   0.0000   0.0000

          k = 0.0835 0.0000 0.2646 (   874 PWs)   bands (ev):

   -30.7753 -13.2957 -11.9446 -11.6439 -11.5152  -6.6219   2.5836   4.2338
     4.3225   7.4910   7.5491  11.0755  11.5891  14.7829  15.5708

     occupation numbers 
     1.0000   1.0000   1.0000   1.0000   1.0000   1.0000   1.0000   1.0000
     1.0000   1.0000   1.0000   0.0000   0.0000   0.0000   0.0000

          k = 0.8350 0.0000-0.0756 (   860 PWs)   bands (ev):

   -30.7576 -13.5391 -12.0079 -11.6273 -11.2296  -6.7226   3.0107   3.8147
     4.0825   7.5607   7.8184  11.0591  12.0261  14.8891  15.4169

     occupation numbers 
     1.0000   1.0000   1.0000   1.0000   1.0000   1.0000   1.0000   1.0000
     1.0000   1.0000   1.0000   0.0000   0.0000   0.0000   0.0000

          k = 0.5845 0.0000 0.0378 (   879 PWs)   bands (ev):

   -30.7052 -14.3143 -11.7953 -11.5425 -10.5065  -6.7622   2.2184   3.1112
     3.5588   6.9629   7.8822  11.8442  14.1517  14.3929  14.9273

     occupation numbers 
     1.0000   1.0000   1.0000   1.0000   1.0000   1.0000   1.0000   1.0000
     1.0000   1.0000   1.0000   0.0000   0.0000   0.0000   0.0000

          k = 0.0835-0.8350-0.1134 (   870 PWs)   bands (ev):

   -30.7535 -13.5889 -11.9677 -11.6991 -11.1329  -6.7098   2.9081   3.7161
     4.0811   7.5068   7.7046  11.0783  12.2295  15.0050  15.2251

     occupation numbers 
     1.0000   1.0000   1.0000   1.0000   1.0000   1.0000   1.0000   1.0000
     1.0000   1.0000   1.0000   0.0000   0.0000   0.0000   0.0000

          k = 0.8350-0.8350-0.4536 (   860 PWs)   bands (ev):

   -30.7386 -13.6773 -11.9706 -11.7931 -10.9747  -6.7384   2.9989   3.5667
     3.9490   7.5434   7.5827  11.3101  12.6828  14.8891  14.9236

     occupation numbers 
     1.0000   1.0000   1.0000   1.0000   1.0000   1.0000   1.0000   1.0000
     1.0000   1.0000   1.0000   0.0000   0.0000   0.0000   0.0000

          k = 0.5845-0.8350-0.3402 (   867 PWs)   bands (ev):

   -30.6895 -14.1365 -11.7543 -11.7235 -10.7607  -6.7171   2.5028   3.0557
     3.6235   6.7695   7.4228  11.5951  14.5652  14.9337  15.4741

     occupation numbers 
     1.0000   1.0000   1.0000   1.0000   1.0000   1.0000   1.0000   1.0000
     1.0000   1.0000   1.0000   0.0000   0.0000   0.0000   0.0000

          k = 0.3340-0.6680-0.1512 (   865 PWs)   bands (ev):

   -30.6696 -13.7564 -12.0491 -11.7209 -11.1684  -6.6460   2.7133   3.3291
     3.6755   6.5875   6.8057  11.5266  15.0957  15.5514  15.7212

     occupation numbers 
     1.0000   1.0000   1.0000   1.0000   1.0000   1.0000   1.0000   1.0000
     1.0000   1.0000   1.0000   0.0000   0.0000   0.0000   0.0000

          k = 0.0835-0.6680-0.0378 (   868 PWs)   bands (ev):

   -30.7143 -14.0982 -11.8597 -11.6284 -10.6948  -6.7581   2.5591   3.2542
     3.6869   7.1025   7.7919  11.6157  13.8708  14.4581  14.8645

     occupation numbers 
     1.0000   1.0000   1.0000   1.0000   1.0000   1.0000   1.0000   1.0000
     1.0000   1.0000   1.0000   0.0000   0.0000   0.0000   0.0000

          k = 0.5845-0.6680-0.2646 (   864 PWs)   bands (ev):

   -30.6575 -13.6668 -12.0521 -11.6927 -11.3911  -6.6122   2.6586   3.4158
     3.6901   6.4356   6.6020  11.5307  15.3650  15.8237  16.0041

     occupation numbers 
     1.0000   1.0000   1.0000   1.0000   1.0000   1.0000   1.0000   1.0000
     1.0000   1.0000   1.0000   0.0000   0.0000   0.0000   0.0000

          k =-0.7515 0.6680 0.1890 (   865 PWs)   bands (ev):

   -30.6881 -13.9107 -11.9323 -11.7125 -10.9504  -6.6350   2.3594   3.1887
     3.8924   6.4846   7.2491  11.5168  14.7924  14.9475  15.7297

     occupation numbers 
     1.0000   1.0000   1.0000   1.0000   1.0000   1.0000   1.0000   1.0000
     1.0000   1.0000   1.0000   0.0000   0.0000   0.0000   0.0000

          k =-0.2505 0.6680-0.0378 (   863 PWs)   bands (ev):

   -30.6855 -13.8741 -11.9481 -11.7900 -10.9484  -6.6922   2.7467   3.3125
     3.6455   6.6564   7.2537  11.7642  14.8316  14.8802  15.1403

     occupation numbers 
     1.0000   1.0000   1.0000   1.0000   1.0000   1.0000   1.0000   1.0000
     1.0000   1.0000   1.0000   0.0000   0.0000   0.0000   0.0000

          k =-0.7515 0.8350 0.2646 (   871 PWs)   bands (ev):

   -30.7230 -13.8739 -11.8270 -11.8031 -10.8524  -6.6877   2.6090   3.2387
     3.9361   7.0806   7.5010  11.2581  13.5155  14.6930  15.4312

     occupation numbers 
     1.0000   1.0000   1.0000   1.0000   1.0000   1.0000   1.0000   1.0000
     1.0000   1.0000   1.0000   0.0000   0.0000   0.0000   0.0000

          k =-0.2505 0.8350 0.0378 (   858 PWs)   bands (ev):

   -30.7203 -13.8399 -11.9019 -11.8160 -10.8506  -6.7376   2.8601   3.3721
     3.8169   7.2602   7.5366  11.4779  13.4255  14.7049  14.9791

     occupation numbers 
     1.0000   1.0000   1.0000   1.0000   1.0000   1.0000   1.0000   1.0000
     1.0000   1.0000   1.0000   0.0000   0.0000   0.0000   0.0000

          k =-0.7515 0.0000-0.1134 (   865 PWs)   bands (ev):

   -30.7389 -13.8713 -11.9173 -11.5959 -10.9231  -6.7359   2.8038   3.3965
     3.8926   7.3471   7.8151  11.1975  12.8591  14.8324  15.1428

     occupation numbers 
     1.0000   1.0000   1.0000   1.0000   1.0000   1.0000   1.0000   1.0000
     1.0000   1.0000   1.0000   0.0000   0.0000   0.0000   0.0000

          k = 0.0000 0.0000-0.4536 (   880 PWs)   bands (ev):

   -30.7762 -13.0793 -12.0995 -11.6585 -11.6585  -6.7103   3.2168   4.2803
     4.2803   7.8184   7.8184  10.8579  11.2501  14.6336  15.4888

     occupation numbers 
     1.0000   1.0000   1.0000   1.0000   1.0000   1.0000   1.0000   1.0000
     1.0000   1.0000   1.0000   0.0000   0.0000   0.0000   0.0000

     the Fermi energy is     8.9370 ev

!    total energy              =    -139.00596018 Ry
     Harris-Foulkes estimate   =    -139.00596048 Ry
     estimated scf accuracy    <       0.00000093 Ry

     The total energy is the sum of the following terms:

     one-electron contribution =     -39.65250174 Ry
     hartree contribution      =      31.31420238 Ry
     xc contribution           =     -26.02509429 Ry
     ewald contribution        =    -104.64256653 Ry
     smearing contrib. (-TS)   =      -0.00000000 Ry

     convergence has been achieved in   7 iterations

     negative rho (up, down):  2.055E-04 0.000E+00

     Forces acting on atoms (cartesian axes, Ry/au):

     atom    1 type  1   force =     0.00000000    0.00000000    0.00000000
     atom    2 type  2   force =     0.00000000   -0.00000000   -0.01993211
     atom    3 type  2   force =     0.00000000    0.00000000    0.01993211
     The non-local contrib.  to forces
     atom    1 type  1   force =     0.00000000   -0.00000000   -0.00000000
     atom    2 type  2   force =     0.00000000    0.00000000    1.75595002
     atom    3 type  2   force =    -0.00000000    0.00000000   -1.75595002
     The ionic contribution  to forces
     atom    1 type  1   force =     0.00000000    0.00000000    0.00000000
     atom    2 type  2   force =     0.00000000   -0.00000000   -8.48568528
     atom    3 type  2   force =    -0.00000000    0.00000000    8.48568528
     The local contribution  to forces
     atom    1 type  1   force =     0.00000000   -0.00000000    0.00000000
     atom    2 type  2   force =     0.00000000   -0.00000000    6.71147071
     atom    3 type  2   force =     0.00000000    0.00000000   -6.71147071
     The core correction contribution to forces
     atom    1 type  1   force =     0.00000000   -0.00000000   -0.00000000
     atom    2 type  2   force =     0.00000000    0.00000000    0.00000000
     atom    3 type  2   force =     0.00000000    0.00000000    0.00000000
     The Hubbard contrib.    to forces
     atom    1 type  1   force =     0.00000000    0.00000000    0.00000000
     atom    2 type  2   force =     0.00000000    0.00000000    0.00000000
     atom    3 type  2   force =     0.00000000    0.00000000    0.00000000
     The SCF correction term to forces
     atom    1 type  1   force =    -0.00000000    0.00000000   -0.00000000
     atom    2 type  2   force =    -0.00000000    0.00000000   -0.00166756
     atom    3 type  2   force =    -0.00000000   -0.00000000    0.00166756

     Total force =     0.028188     Total SCF correction =     0.002358


     Computing stress (Cartesian axis) and pressure


     negative rho (up, down):  2.055E-04 0.000E+00
          total   stress  (Ry/bohr**3)                   (kbar)     P=   73.68
   0.00059171   0.00000000   0.00000000         87.04      0.00      0.00
   0.00000000   0.00059171  -0.00000000          0.00     87.04     -0.00
   0.00000000  -0.00000000   0.00031914          0.00     -0.00     46.95

     kinetic stress (kbar)  16842.03     -0.00      0.00
                               -0.00  16842.03      0.00
                                0.00      0.00  15037.49

     local   stress (kbar) -13493.53     -0.00      0.00
                               -0.00 -13493.53     -0.00
                                0.00     -0.00    925.65

     nonloc. stress (kbar)  12549.08     -0.00     -0.00
                               -0.00  12549.08      0.00
                               -0.00      0.00  11692.03

     hartree stress (kbar)   8080.93      0.00     -0.00
                                0.00   8080.93      0.00
                               -0.00      0.00   2813.39

     exc-cor stress (kbar)  -3911.04      0.00      0.00
                                0.00  -3911.04     -0.00
                                0.00     -0.00  -3914.19

     corecor stress (kbar)  -1019.41     -0.00      0.00
                               -0.00  -1019.41     -0.00
                                0.00      0.00  -1019.95

     ewald   stress (kbar) -18961.01      0.00      0.00
                                0.00 -18961.01     -0.00
                                0.00     -0.00 -25487.48

     hubbard stress (kbar)      0.00      0.00      0.00
                                0.00      0.00      0.00
                                0.00      0.00      0.00

     london  stress (kbar)      0.00      0.00      0.00
                                0.00      0.00      0.00
                                0.00      0.00      0.00

     DFT-D3  stress (kbar)      0.00      0.00      0.00
                                0.00      0.00      0.00
                                0.00      0.00      0.00

     XDM     stress (kbar)      0.00      0.00      0.00
                                0.00      0.00      0.00
                                0.00      0.00      0.00

     dft-nl  stress (kbar)      0.00      0.00      0.00
                                0.00      0.00      0.00
[...]

     occupation numbers 
     1.0000   1.0000   1.0000   1.0000   1.0000   1.0000   1.0000   1.0000
     1.0000   1.0000   1.0000   0.0000   0.0000   0.0000   0.0000

          k = 0.4125 0.1650 0.0410 (   805 PWs)   bands (ev):

   -29.9693 -13.3261 -10.9979 -10.9879 -10.1364  -5.8532   2.4893   3.9331
     4.5979   6.8901   8.3968  13.0205  15.4777  15.6768  16.3990

     occupation numbers 
     1.0000   1.0000   1.0000   1.0000   1.0000   1.0000   1.0000   1.0000
     1.0000   1.0000   1.0000   0.0000   0.0000   0.0000   0.0000

          k =-0.0825-0.6601-0.1229 (   808 PWs)   bands (ev):

   -29.9850 -13.2798 -11.1751 -10.9188 -10.0443  -6.0260   3.1978   3.9236
     4.3930   8.0004   8.5769  12.2005  14.5450  15.1892  16.2479

     occupation numbers 
     1.0000   1.0000   1.0000   1.0000   1.0000   1.0000   1.0000   1.0000
     1.0000   1.0000   1.0000   0.0000   0.0000   0.0000   0.0000

          k = 0.6601-0.6601-0.4916 (   802 PWs)   bands (ev):

   -29.9456 -12.9167 -11.3193 -11.1063 -10.4924  -5.8796   3.2602   4.1264
     4.3628   6.8129   8.3192  12.7947  16.0064  16.1147  16.4037

     occupation numbers 
     1.0000   1.0000   1.0000   1.0000   1.0000   1.0000   1.0000   1.0000
     1.0000   1.0000   1.0000   0.0000   0.0000   0.0000   0.0000

          k = 0.4125-0.6601-0.3687 (   802 PWs)   bands (ev):

   -29.9392 -12.8919 -11.2733 -10.9947 -10.6798  -5.8518   2.9437   4.0250
     4.6865   6.5525   8.0848  12.5289  16.0534  16.4233  16.6930

     occupation numbers 
     1.0000   1.0000   1.0000   1.0000   1.0000   1.0000   1.0000   1.0000
     1.0000   1.0000   1.0000   0.0000   0.0000   0.0000   0.0000

          k =-0.0825-0.4950-0.0410 (   810 PWs)   bands (ev):

   -29.9721 -13.4858 -11.0610 -10.8702  -9.9132  -5.9393   2.5807   3.8708
     4.3213   7.4384   8.4891  12.9099  15.1095  15.5303  16.1246

     occupation numbers 
     1.0000   1.0000   1.0000   1.0000   1.0000   1.0000   1.0000   1.0000
     1.0000   1.0000   1.0000   0.0000   0.0000   0.0000   0.0000

          k = 0.4125-0.4950-0.2868 (   799 PWs)   bands (ev):

   -29.9236 -12.5624 -11.3650 -11.2407 -10.8572  -5.8839   3.3399   4.1928
     4.3929   6.9403   7.4716  12.1460  16.2929  16.5780  16.6696

     occupation numbers 
     1.0000   1.0000   1.0000   1.0000   1.0000   1.0000   1.0000   1.0000
     1.0000   1.0000   1.0000   0.0000   0.0000   0.0000   0.0000

          k = 0.1650-0.3300-0.0819 (   801 PWs)   bands (ev):

   -29.9836 -13.2442 -11.0297 -10.9697 -10.1577  -5.8300   2.4315   3.9824
     4.7786   6.9457   8.3113  12.8830  15.1556  15.5204  16.4533

     occupation numbers 
     1.0000   1.0000   1.0000   1.0000   1.0000   1.0000   1.0000   1.0000
     1.0000   1.0000   1.0000   0.0000   0.0000   0.0000   0.0000

          k =-0.0825-0.3300 0.0410 (   797 PWs)   bands (ev):

   -29.9956 -13.3275 -10.9746 -10.8985 -10.0879  -5.8043   2.2818   4.0541
     4.6773   7.1991   8.1711  13.1137  14.8078  15.5801  16.3536

     occupation numbers 
     1.0000   1.0000   1.0000   1.0000   1.0000   1.0000   1.0000   1.0000
     1.0000   1.0000   1.0000   0.0000   0.0000   0.0000   0.0000

          k = 0.6601-0.3300-0.3277 (   804 PWs)   bands (ev):

   -29.9506 -12.9957 -11.2695 -10.9771 -10.4696  -5.8985   2.9359   3.9920
     4.6384   6.8756   8.0606  12.3097  15.7743  16.2738  16.3932

     occupation numbers 
     1.0000   1.0000   1.0000   1.0000   1.0000   1.0000   1.0000   1.0000
     1.0000   1.0000   1.0000   0.0000   0.0000   0.0000   0.0000

          k = 0.4125-0.3300-0.2048 (   803 PWs)   bands (ev):

   -29.9384 -12.8988 -11.2863 -11.0059 -10.6353  -5.9229   3.1861   4.0488
     4.4539   7.0625   7.7245  12.1288  16.0422  16.4630  16.6531

     occupation numbers 
     1.0000   1.0000   1.0000   1.0000   1.0000   1.0000   1.0000   1.0000
     1.0000   1.0000   1.0000   0.0000   0.0000   0.0000   0.0000

          k = 0.3300-0.3300 0.0000 (   804 PWs)   bands (ev):

   -29.9522 -12.9856 -11.2526 -10.9670 -10.5254  -5.7663   2.5438   3.9864
     5.0189   6.2131   8.3612  13.1287  15.9186  16.2460  16.4052

     occupation numbers 
     1.0000   1.0000   1.0000   1.0000   1.0000   1.0000   1.0000   1.0000
     1.0000   1.0000   1.0000   0.0000   0.0000   0.0000   0.0000

          k = 0.0825-0.3300 0.1229 (   801 PWs)   bands (ev):

   -29.9939 -13.3312 -10.9885 -10.9003 -10.0657  -5.8946   2.5518   3.9619
     4.6092   7.4067   8.2340  12.5918  14.7805  15.3861  16.3912

     occupation numbers 
     1.0000   1.0000   1.0000   1.0000   1.0000   1.0000   1.0000   1.0000
     1.0000   1.0000   1.0000   0.0000   0.0000   0.0000   0.0000

          k = 0.5776-0.3300-0.1229 (   800 PWs)   bands (ev):

   -29.9367 -12.8628 -11.3135 -11.0336 -10.6689  -5.8931   3.2633   4.1137
     4.3766   6.8001   8.0003  12.4161  16.1774  16.5001  16.6378

     occupation numbers 
     1.0000   1.0000   1.0000   1.0000   1.0000   1.0000   1.0000   1.0000
     1.0000   1.0000   1.0000   0.0000   0.0000   0.0000   0.0000

          k = 0.0825-0.1650 0.2048 (   800 PWs)   bands (ev):

   -30.0267 -12.8986 -11.0714 -10.9651 -10.4404  -5.9057   2.8789   4.5280
     4.9251   7.8561   8.1879  12.1207  13.1740  15.7319  16.0872

     occupation numbers 
     1.0000   1.0000   1.0000   1.0000   1.0000   1.0000   1.0000   1.0000
     1.0000   1.0000   1.0000   0.0000   0.0000   0.0000   0.0000

          k = 0.8251-0.1650-0.1639 (   804 PWs)   bands (ev):

   -30.0070 -12.9292 -11.2115 -11.0649 -10.2992  -6.0052   3.4790   4.2370
     4.6415   8.2996   8.3818  11.9130  13.4368  15.6309  15.9877

     occupation numbers 
     1.0000   1.0000   1.0000   1.0000   1.0000   1.0000   1.0000   1.0000
     1.0000   1.0000   1.0000   0.0000   0.0000   0.0000   0.0000

          k = 0.5776-0.1650-0.0410 (   806 PWs)   bands (ev):

   -29.9636 -13.2887 -11.1179 -11.0094 -10.1185  -5.9430   2.9273   4.0014
     4.3164   7.3403   8.4924  12.7674  15.4376  15.5686  16.2832

     occupation numbers 
     1.0000   1.0000   1.0000   1.0000   1.0000   1.0000   1.0000   1.0000
     1.0000   1.0000   1.0000   0.0000   0.0000   0.0000   0.0000

          k = 0.0825 0.0000 0.2868 (   801 PWs)   bands (ev):

   -30.0378 -12.5882 -11.1923 -10.9321 -10.7943  -5.9559   3.3624   4.8771
     4.9605   8.3423   8.3931  11.7965  12.3322  15.4008  16.2326

     occupation numbers 
     1.0000   1.0000   1.0000   1.0000   1.0000   1.0000   1.0000   1.0000
     1.0000   1.0000   1.0000   0.0000   0.0000   0.0000   0.0000

          k = 0.8251 0.0000-0.0819 (   806 PWs)   bands (ev):

   -30.0185 -12.7421 -11.3838 -10.9233 -10.5470  -5.9858   3.6610   4.5091
     4.7118   8.5251   8.7609  12.0669  12.6857  15.7806  16.0916

     occupation numbers 
     1.0000   1.0000   1.0000   1.0000   1.0000   1.0000   1.0000   1.0000
     1.0000   1.0000   1.0000   0.0000   0.0000   0.0000   0.0000

          k = 0.5776 0.0000 0.0410 (   807 PWs)   bands (ev):

   -29.9773 -13.4616 -11.1483 -10.8420  -9.8843  -5.9876   2.7513   3.9241
     4.2894   7.8034   8.6487  12.7676  14.9542  15.1352  16.2199

     occupation numbers 
     1.0000   1.0000   1.0000   1.0000   1.0000   1.0000   1.0000   1.0000
     1.0000   1.0000   1.0000   0.0000   0.0000   0.0000   0.0000

          k = 0.0825-0.8251-0.1229 (   810 PWs)   bands (ev):

   -30.0162 -12.8050 -11.3112 -10.9869 -10.4517  -5.9956   3.5970   4.4334
     4.6962   8.4492   8.6061  11.9620  12.9010  15.8190  15.9502

     occupation numbers 
     1.0000   1.0000   1.0000   1.0000   1.0000   1.0000   1.0000   1.0000
     1.0000   1.0000   1.0000   0.0000   0.0000   0.0000   0.0000

          k = 0.8251-0.8251-0.4916 (   804 PWs)   bands (ev):

   -30.0021 -12.8537 -11.3711 -11.0771 -10.3172  -5.9749   3.5669   4.3669
     4.5292   8.3716   8.6606  12.3904  13.3146  15.6478  15.8634

     occupation numbers 
     1.0000   1.0000   1.0000   1.0000   1.0000   1.0000   1.0000   1.0000
     1.0000   1.0000   1.0000   0.0000   0.0000   0.0000   0.0000

          k = 0.5776-0.8251-0.3687 (   802 PWs)   bands (ev):

   -29.9643 -13.3069 -11.0825 -11.0040 -10.1031  -5.9912   3.0699   3.8687
     4.3152   7.5193   8.3429  12.3404  15.3584  15.6115  16.2451

     occupation numbers 
     1.0000   1.0000   1.0000   1.0000   1.0000   1.0000   1.0000   1.0000
     1.0000   1.0000   1.0000   0.0000   0.0000   0.0000   0.0000

          k = 0.3300-0.6601-0.1639 (   801 PWs)   bands (ev):

   -29.9473 -12.9630 -11.3028 -11.0387 -10.4601  -5.9520   3.3584   4.0947
     4.2541   7.3085   7.8651  12.1626  15.8569  16.1673  16.5051

     occupation numbers 
     1.0000   1.0000   1.0000   1.0000   1.0000   1.0000   1.0000   1.0000
     1.0000   1.0000   1.0000   0.0000   0.0000   0.0000   0.0000

          k = 0.0825-0.6601-0.0410 (   811 PWs)   bands (ev):

   -29.9834 -13.2551 -11.2339 -10.9227 -10.0562  -5.9901   3.0880   4.0745
     4.3668   7.9621   8.6812  12.5933  14.4980  15.2241  16.1111

     occupation numbers 
     1.0000   1.0000   1.0000   1.0000   1.0000   1.0000   1.0000   1.0000
     1.0000   1.0000   1.0000   0.0000   0.0000   0.0000   0.0000

          k = 0.5776-0.6601-0.2868 (   801 PWs)   bands (ev):

   -29.9375 -12.8885 -11.3011 -11.0171 -10.6340  -5.9376   3.3190   4.1041
     4.3067   7.2557   7.5856  12.0896  16.0937  16.4818  16.6367

     occupation numbers 
     1.0000   1.0000   1.0000   1.0000   1.0000   1.0000   1.0000   1.0000
     1.0000   1.0000   1.0000   0.0000   0.0000   0.0000   0.0000

          k =-0.7426 0.6601 0.2048 (   800 PWs)   bands (ev):

   -29.9650 -13.1217 -11.1854 -10.9911 -10.2638  -5.9587   3.0231   3.9172
     4.5595   7.2921   8.0972  12.1050  15.5210  15.6224  16.4280

     occupation numbers 
     1.0000   1.0000   1.0000   1.0000   1.0000   1.0000   1.0000   1.0000
     1.0000   1.0000   1.0000   0.0000   0.0000   0.0000   0.0000

          k =-0.2475 0.6601-0.0410 (   801 PWs)   bands (ev):

   -29.9593 -13.0443 -11.2181 -11.1536 -10.2863  -5.9296   3.2659   4.1435
     4.2663   7.2820   8.3913  12.6671  15.4503  15.6899  16.3276

     occupation numbers 
     1.0000   1.0000   1.0000   1.0000   1.0000   1.0000   1.0000   1.0000
     1.0000   1.0000   1.0000   0.0000   0.0000   0.0000   0.0000

          k =-0.7426 0.8251 0.2868 (   802 PWs)   bands (ev):

   -29.9932 -13.0866 -11.1206 -11.0717 -10.1797  -6.0118   3.3269   3.9914
     4.5703   7.9907   8.2798  11.9133  14.1981  15.4321  16.2169

     occupation numbers 
     1.0000   1.0000   1.0000   1.0000   1.0000   1.0000   1.0000   1.0000
     1.0000   1.0000   1.0000   0.0000   0.0000   0.0000   0.0000

          k =-0.2475 0.8251 0.0410 (   806 PWs)   bands (ev):

   -29.9876 -13.0108 -11.2863 -11.0970 -10.2000  -5.9763   3.4069   4.2082
     4.4133   8.0566   8.5772  12.4755  14.0481  15.4705  16.0552

     occupation numbers 
     1.0000   1.0000   1.0000   1.0000   1.0000   1.0000   1.0000   1.0000
     1.0000   1.0000   1.0000   0.0000   0.0000   0.0000   0.0000

          k =-0.7426-0.0000-0.1229 (   809 PWs)   bands (ev):

   -30.0044 -13.0619 -11.2643 -10.8925 -10.2549  -6.0163   3.4281   4.1675
     4.5629   8.2647   8.6859  12.0569  13.5177  15.5550  16.1934

     occupation numbers 
     1.0000   1.0000   1.0000   1.0000   1.0000   1.0000   1.0000   1.0000
     1.0000   1.0000   1.0000   0.0000   0.0000   0.0000   0.0000

          k = 0.0000-0.0000-0.4916 (   816 PWs)   bands (ev):

   -30.0326 -12.2904 -11.5150 -10.9540 -10.9540  -5.9578   3.9087   4.8674
     4.8674   8.8286   8.8286  11.9111  12.0312  15.4013  16.1969

     occupation numbers 
     1.0000   1.0000   1.0000   1.0000   1.0000   1.0000   1.0000   1.0000
     1.0000   1.0000   1.0000   0.0000   0.0000   0.0000   0.0000

     the Fermi energy is    11.0886 ev

!    total energy              =    -139.00234568 Ry
     Harris-Foulkes estimate   =    -139.00234524 Ry
     estimated scf accuracy    <          4.1E-09 Ry

     The total energy is the sum of the following terms:

     one-electron contribution =     -32.77042709 Ry
     hartree contribution      =      28.46975108 Ry
     xc contribution           =     -26.03995197 Ry
     ewald contribution        =    -108.66171770 Ry
     smearing contrib. (-TS)   =      -0.00000000 Ry

     convergence has been achieved in   8 iterations

     negative rho (up, down):  1.883E-04 0.000E+00

     Forces acting on atoms (cartesian axes, Ry/au):

     atom    1 type  1   force =     0.00000000    0.00000000    0.00000000
     atom    2 type  2   force =     0.00000000   -0.00000000   -0.00175062
     atom    3 type  2   force =    -0.00000000    0.00000000    0.00175062
     The non-local contrib.  to forces
     atom    1 type  1   force =    -0.00000000    0.00000000   -0.00000000
     atom    2 type  2   force =    -0.00000000    0.00000000    1.75857355
     atom    3 type  2   force =     0.00000000   -0.00000000   -1.75857355
     The ionic contribution  to forces
     atom    1 type  1   force =     0.00000000   -0.00000000    0.00000000
     atom    2 type  2   force =     0.00000000   -0.00000000   -6.94947942
     atom    3 type  2   force =    -0.00000000    0.00000000    6.94947942
     The local contribution  to forces
     atom    1 type  1   force =     0.00000000   -0.00000000    0.00000000
     atom    2 type  2   force =    -0.00000000    0.00000000    5.18910174
     atom    3 type  2   force =     0.00000000   -0.00000000   -5.18910174
     The core correction contribution to forces
     atom    1 type  1   force =     0.00000000   -0.00000000   -0.00000000
     atom    2 type  2   force =     0.00000000    0.00000000    0.00000000
     atom    3 type  2   force =     0.00000000    0.00000000    0.00000000
     The Hubbard contrib.    to forces
     atom    1 type  1   force =     0.00000000    0.00000000    0.00000000
     atom    2 type  2   force =     0.00000000    0.00000000    0.00000000
     atom    3 type  2   force =     0.00000000    0.00000000    0.00000000
     The SCF correction term to forces
     atom    1 type  1   force =     0.00000000   -0.00000000    0.00000000
     atom    2 type  2   force =     0.00000000   -0.00000000    0.00005350
     atom    3 type  2   force =    -0.00000000    0.00000000   -0.00005350

     Total force =     0.002476     Total SCF correction =     0.000076


     Computing stress (Cartesian axis) and pressure


     negative rho (up, down):  1.883E-04 0.000E+00
          total   stress  (Ry/bohr**3)                   (kbar)     P=   84.27
   0.00055937  -0.00000000  -0.00000000         82.29     -0.00     -0.00
  -0.00000000   0.00055937   0.00000000         -0.00     82.29      0.00
  -0.00000000   0.00000000   0.00059975         -0.00      0.00     88.23

     kinetic stress (kbar)  17846.42     -0.00     -0.00
                               -0.00  17846.42      0.00
                               -0.00      0.00  15895.95

     local   stress (kbar)  -8695.34     -0.00     -0.00
                               -0.00  -8695.34      0.00
                               -0.00      0.00  -5789.16

     nonloc. stress (kbar)  13273.55      0.00      0.00
                                0.00  13273.55      0.00
                               -0.00      0.00  12373.39

     hartree stress (kbar)   6363.26     -0.00      0.00
                               -0.00   6363.26     -0.00
                                0.00     -0.00   5527.01

     exc-cor stress (kbar)  -4144.47      0.00     -0.00
                                0.00  -4144.47     -0.00
                               -0.00     -0.00  -4136.18

     corecor stress (kbar)  -1078.48     -0.00     -0.00
                               -0.00  -1078.48      0.00
                               -0.00      0.00  -1079.10

     ewald   stress (kbar) -23482.66     -0.00      0.00
                               -0.00 -23482.66      0.00
                                0.00      0.00 -22703.69

     hubbard stress (kbar)      0.00      0.00      0.00
                                0.00      0.00      0.00
                                0.00      0.00      0.00

     london  stress (kbar)      0.00      0.00      0.00
                                0.00      0.00      0.00
                                0.00      0.00      0.00

     DFT-D3  stress (kbar)      0.00      0.00      0.00
                                0.00      0.00      0.00
                                0.00      0.00      0.00

     XDM     stress (kbar)      0.00      0.00      0.00
                                0.00      0.00      0.00
                                0.00      0.00      0.00

     dft-nl  stress (kbar)      0.00      0.00      0.00
                                0.00      0.00      0.00
                                0.00      0.00      0.00

     TS-vdW  stress (kbar)      0.00      0.00      0.00
                                0.00      0.00      0.00
                                0.00      0.00      0.00



     Writing output data file CaO2.save/
 
     init_run     :      4.80s CPU      4.95s WALL (       2 calls)
     electrons    :    296.37s CPU    300.81s WALL (      11 calls)
     update_pot   :     11.70s CPU     11.73s WALL (       9 calls)
     forces       :      8.44s CPU      8.61s WALL (      11 calls)
     stress       :     17.75s CPU     18.26s WALL (      11 calls)

     Called by init_run:
     wfcinit      :      2.25s CPU      2.29s WALL (       2 calls)
     wfcinit:atom :      0.03s CPU      0.03s WALL (     108 calls)
     wfcinit:wfcr :      2.12s CPU      2.15s WALL (     108 calls)
     potinit      :      0.48s CPU      0.49s WALL (       2 calls)
     hinit0       :      1.93s CPU      1.94s WALL (       2 calls)

     Called by electrons:
     c_bands      :    241.77s CPU    243.57s WALL (      85 calls)
     sum_band     :     45.89s CPU     47.27s WALL (      85 calls)
     v_of_rho     :      4.16s CPU      4.20s WALL (      95 calls)
     v_h          :      0.17s CPU      0.17s WALL (      95 calls)
     v_xc         :      4.90s CPU      4.94s WALL (     117 calls)
     newd         :      5.07s CPU      6.42s WALL (      95 calls)
     mix_rho      :      0.31s CPU      0.32s WALL (      85 calls)

     Called by c_bands:
     init_us_2    :      3.90s CPU      3.92s WALL (   10476 calls)
     cegterg      :    233.20s CPU    234.61s WALL (    4590 calls)

     Called by sum_band:
     sum_band:bec :      0.08s CPU      0.08s WALL (    4590 calls)
     addusdens    :      5.43s CPU      6.59s WALL (      85 calls)

     Called by *egterg:
     h_psi        :    209.52s CPU    210.69s WALL (   18845 calls)
     s_psi        :      3.55s CPU      3.58s WALL (   18845 calls)
     g_psi        :      0.81s CPU      0.82s WALL (   14147 calls)
     cdiaghg      :      7.80s CPU      7.84s WALL (   18197 calls)
     cegterg:over :      5.17s CPU      5.20s WALL (   14147 calls)
     cegterg:upda :      3.71s CPU      3.73s WALL (   14147 calls)
     cegterg:last :      1.92s CPU      1.93s WALL (    5035 calls)

     Called by h_psi:
     h_psi:pot    :    209.12s CPU    210.24s WALL (   18845 calls)
     h_psi:calbec :      3.93s CPU      3.97s WALL (   18845 calls)
     vloc_psi     :    201.34s CPU    202.36s WALL (   18845 calls)
     add_vuspsi   :      3.72s CPU      3.75s WALL (   18845 calls)

     General routines
     calbec       :      5.91s CPU      5.95s WALL (   26405 calls)
     fft          :      2.09s CPU      2.09s WALL (    1509 calls)
     ffts         :      0.04s CPU      0.04s WALL (     180 calls)
     fftw         :    217.70s CPU    218.43s WALL (  460372 calls)
     interpolate  :      0.18s CPU      0.18s WALL (      95 calls)
 
 
     PWSCF        :  5m40.21s CPU     5m45.89s WALL

 
   This run was terminated on:  16:44:32   2Apr2021            

=------------------------------------------------------------------------------=
   JOB DONE.
=------------------------------------------------------------------------------=
