
     Program PWSCF v.6.4.1 starts on  5Jan2021 at  9:26:58 

     This program is part of the open-source Quantum ESPRESSO suite
     for quantum simulation of materials; please cite
         "P. Giannozzi et al., J. Phys.:Condens. Matter 21 395502 (2009);
         "P. Giannozzi et al., J. Phys.:Condens. Matter 29 465901 (2017);
          URL http://www.quantum-espresso.org", 
     in publications or presentations arising from this work. More details at
     http://www.quantum-espresso.org/quote

     Parallel version (MPI), running on     8 processors

     MPI processes distributed on     1 nodes
     R & G space division:  proc/nbgrp/npool/nimage =       8
     Waiting for input...
     Reading input from standard input

     Current dimensions of program PWSCF are:
     Max number of different atomic species (ntypx) = 10
     Max number of k-points (npk) =  40000
     Max angular momentum in pseudopotentials (lmaxx) =  3

     Subspace diagonalization in iterative solution of the eigenvalue problem:
     a serial algorithm will be used

     Found symmetry operation: I + ( -0.5000 -0.5000  0.0000)
     This is a supercell, fractional translations are disabled
 
     Parallelization info
     --------------------
     sticks:   dense  smooth     PW     G-vecs:    dense   smooth      PW
     Min         114      50     17                 2928      866     179
     Max         115      51     19                 2931      871     181
     Sum         917     407    141                23435     6955    1435
 


     bravais-lattice index     =          -12
     lattice parameter (alat)  =       8.1098  a.u.
     unit-cell volume          =     247.5935 (a.u.)^3
     number of atoms/cell      =            4
     number of atomic types    =            1
     number of electrons       =        24.00
     number of Kohn-Sham states=           16
     kinetic-energy cutoff     =      35.0000  Ry
     charge density cutoff     =     315.0000  Ry
     convergence threshold     =      1.0E-06
     mixing beta               =       0.4000
     number of iterations used =            8  plain     mixing
     Exchange-correlation      = SLA PW PBE PBE ( 1  4  3  4 0 0)
     nstep                     =          100


     celldm(1)=   8.109794  celldm(2)=   0.554081  celldm(3)=   1.067042
     celldm(4)=   0.000000  celldm(5)=  -0.619300  celldm(6)=   0.000000

     crystal axes: (cart. coord. in units of alat)
               a(1) = (   1.000000   0.000000   0.000000 )  
               a(2) = (   0.000000   0.554081   0.000000 )  
               a(3) = (  -0.660819   0.000000   0.837793 )  

     reciprocal axes: (cart. coord. in units 2 pi/alat)
               b(1) = (  1.000000 -0.000000  0.788762 )  
               b(2) = (  0.000000  1.804791 -0.000000 )  
               b(3) = (  0.000000  0.000000  1.193612 )  


     PseudoPot. # 1 for O  read from file:
     ../pseudo/O.pbe-van_ak.UPF
     MD5 check sum: 572909515f9aa9498032b6eb5528d5f9
     Pseudo is Ultrasoft, Zval =  6.0
     Generated by new atomic code, or converted to UPF format
     Using radial grid of  737 points,  4 beta functions with: 
                l(1) =   0
                l(2) =   0
                l(3) =   1
                l(4) =   1
     Q(r) pseudized with  8 coefficients,  rinner =    0.800   0.800   0.800


     atomic species   valence    mass     pseudopotential
        O              6.00    15.99940     O ( 1.00)

      4 Sym. Ops., with inversion, found


                                    s                        frac. trans.

      isym =  1     identity                                     

 cryst.   s( 1) = (     1          0          0      )
                  (     0          1          0      )
                  (     0          0          1      )

 cart.    s( 1) = (  1.0000000  0.0000000  0.0000000 )
                  (  0.0000000  1.0000000  0.0000000 )
                  (  0.0000000  0.0000000  1.0000000 )


      isym =  2     180 deg rotation - cart. axis [0,1,0]        

 cryst.   s( 2) = (    -1          0          0      )
                  (     0          1          0      )
                  (     0          0         -1      )

 cart.    s( 2) = ( -1.0000000  0.0000000 -0.0000000 )
                  (  0.0000000  1.0000000  0.0000000 )
                  (  0.0000000  0.0000000 -1.0000000 )


      isym =  3     inversion                                    

 cryst.   s( 3) = (    -1          0          0      )
                  (     0         -1          0      )
                  (     0          0         -1      )

 cart.    s( 3) = ( -1.0000000  0.0000000 -0.0000000 )
                  (  0.0000000 -1.0000000  0.0000000 )
                  (  0.0000000  0.0000000 -1.0000000 )


      isym =  4     inv. 180 deg rotation - cart. axis [0,1,0]   

 cryst.   s( 4) = (     1          0          0      )
                  (     0         -1          0      )
                  (     0          0          1      )

 cart.    s( 4) = (  1.0000000  0.0000000  0.0000000 )
                  (  0.0000000 -1.0000000  0.0000000 )
                  (  0.0000000  0.0000000  1.0000000 )


     point group C_2h (2/m) 
     there are  4 classes
     the character table:

       E     C2    i     s_h  
A_g    1.00  1.00  1.00  1.00
B_g    1.00 -1.00  1.00 -1.00
A_u    1.00  1.00 -1.00 -1.00
B_u    1.00 -1.00 -1.00  1.00

     the symmetry operations in each class and the name of the first element:

     E        1
          identity                                               
     C2       2
          180 deg rotation - cart. axis [0,1,0]                  
     i        3
          inversion                                              
     s_h      4
          inv. 180 deg rotation - cart. axis [0,1,0]             

   Cartesian axes

     site n.     atom                  positions (alat units)
         1           O   tau(   1) = (  -0.0121054   0.0000000   0.1281824  )
         2           O   tau(   2) = (   0.4878946   0.2770403   0.1281824  )
         3           O   tau(   3) = (  -0.1487140   0.2770403   0.7096108  )
         4           O   tau(   4) = (   0.3512860   0.0000000   0.7096108  )

   Crystallographic axes

     site n.     atom                  positions (cryst. coord.)
         1           O   tau(   1) = (  0.0890000  0.0000000  0.1530000  )
         2           O   tau(   2) = (  0.5890000  0.5000000  0.1530000  )
         3           O   tau(   3) = (  0.4110000  0.5000000  0.8470000  )
         4           O   tau(   4) = (  0.9110000  0.0000000  0.8470000  )

     number of k points=    40  gaussian smearing, width (Ry)=  0.0100
                       cart. coord. in units 2pi/alat
        k(    1) = (   0.0000000   0.0000000   0.0000000), wk =   0.0208333
        k(    2) = (   0.0000000   0.0000000   0.2984030), wk =   0.0416667
        k(    3) = (   0.0000000   0.0000000  -0.5968060), wk =   0.0208333
        k(    4) = (   0.0000000   0.3007986   0.0000000), wk =   0.0416667
        k(    5) = (   0.0000000   0.3007986   0.2984030), wk =   0.0833333
        k(    6) = (   0.0000000   0.3007986  -0.5968060), wk =   0.0416667
        k(    7) = (   0.0000000   0.6015972   0.0000000), wk =   0.0416667
        k(    8) = (   0.0000000   0.6015972   0.2984030), wk =   0.0833333
        k(    9) = (   0.0000000   0.6015972  -0.5968060), wk =   0.0416667
        k(   10) = (   0.0000000  -0.9023957   0.0000000), wk =   0.0208333
        k(   11) = (   0.0000000  -0.9023957   0.2984030), wk =   0.0416667
        k(   12) = (   0.0000000  -0.9023957  -0.5968060), wk =   0.0208333
        k(   13) = (   0.2500000   0.0000000   0.1971905), wk =   0.0416667
        k(   14) = (   0.2500000   0.0000000   0.4955935), wk =   0.0416667
        k(   15) = (   0.2500000   0.0000000  -0.3996155), wk =   0.0416667
        k(   16) = (   0.2500000   0.0000000  -0.1012125), wk =   0.0416667
        k(   17) = (   0.2500000   0.3007986   0.1971905), wk =   0.0833333
        k(   18) = (   0.2500000   0.3007986   0.4955935), wk =   0.0833333
        k(   19) = (   0.2500000   0.3007986  -0.3996155), wk =   0.0833333
        k(   20) = (   0.2500000   0.3007986  -0.1012125), wk =   0.0833333
        k(   21) = (   0.2500000   0.6015972   0.1971905), wk =   0.0833333
        k(   22) = (   0.2500000   0.6015972   0.4955935), wk =   0.0833333
        k(   23) = (   0.2500000   0.6015972  -0.3996155), wk =   0.0833333
        k(   24) = (   0.2500000   0.6015972  -0.1012125), wk =   0.0833333
        k(   25) = (   0.2500000  -0.9023957   0.1971905), wk =   0.0416667
        k(   26) = (   0.2500000  -0.9023957   0.4955935), wk =   0.0416667
        k(   27) = (   0.2500000  -0.9023957  -0.3996155), wk =   0.0416667
        k(   28) = (   0.2500000  -0.9023957  -0.1012125), wk =   0.0416667
        k(   29) = (  -0.5000000   0.0000000  -0.3943810), wk =   0.0208333
        k(   30) = (  -0.5000000   0.0000000  -0.0959780), wk =   0.0416667
        k(   31) = (  -0.5000000   0.0000000  -0.9911870), wk =   0.0208333
        k(   32) = (  -0.5000000   0.3007986  -0.3943810), wk =   0.0416667
        k(   33) = (  -0.5000000   0.3007986  -0.0959780), wk =   0.0833333
        k(   34) = (  -0.5000000   0.3007986  -0.9911870), wk =   0.0416667
        k(   35) = (  -0.5000000   0.6015972  -0.3943810), wk =   0.0416667
        k(   36) = (  -0.5000000   0.6015972  -0.0959780), wk =   0.0833333
        k(   37) = (  -0.5000000   0.6015972  -0.9911870), wk =   0.0416667
        k(   38) = (  -0.5000000  -0.9023957  -0.3943810), wk =   0.0208333
        k(   39) = (  -0.5000000  -0.9023957  -0.0959780), wk =   0.0416667
        k(   40) = (  -0.5000000  -0.9023957  -0.9911870), wk =   0.0208333

                       cryst. coord.
        k(    1) = (   0.0000000   0.0000000   0.0000000), wk =   0.0208333
        k(    2) = (   0.0000000   0.0000000   0.2500000), wk =   0.0416667
        k(    3) = (   0.0000000   0.0000000  -0.5000000), wk =   0.0208333
        k(    4) = (   0.0000000   0.1666667   0.0000000), wk =   0.0416667
        k(    5) = (   0.0000000   0.1666667   0.2500000), wk =   0.0833333
        k(    6) = (   0.0000000   0.1666667  -0.5000000), wk =   0.0416667
        k(    7) = (   0.0000000   0.3333333   0.0000000), wk =   0.0416667
        k(    8) = (   0.0000000   0.3333333   0.2500000), wk =   0.0833333
        k(    9) = (   0.0000000   0.3333333  -0.5000000), wk =   0.0416667
        k(   10) = (   0.0000000  -0.5000000   0.0000000), wk =   0.0208333
        k(   11) = (   0.0000000  -0.5000000   0.2500000), wk =   0.0416667
        k(   12) = (   0.0000000  -0.5000000  -0.5000000), wk =   0.0208333
        k(   13) = (   0.2500000   0.0000000   0.0000000), wk =   0.0416667
        k(   14) = (   0.2500000   0.0000000   0.2500000), wk =   0.0416667
        k(   15) = (   0.2500000   0.0000000  -0.5000000), wk =   0.0416667
        k(   16) = (   0.2500000   0.0000000  -0.2500000), wk =   0.0416667
        k(   17) = (   0.2500000   0.1666667   0.0000000), wk =   0.0833333
        k(   18) = (   0.2500000   0.1666667   0.2500000), wk =   0.0833333
        k(   19) = (   0.2500000   0.1666667  -0.5000000), wk =   0.0833333
        k(   20) = (   0.2500000   0.1666667  -0.2500000), wk =   0.0833333
        k(   21) = (   0.2500000   0.3333333   0.0000000), wk =   0.0833333
        k(   22) = (   0.2500000   0.3333333   0.2500000), wk =   0.0833333
        k(   23) = (   0.2500000   0.3333333  -0.5000000), wk =   0.0833333
        k(   24) = (   0.2500000   0.3333333  -0.2500000), wk =   0.0833333
        k(   25) = (   0.2500000  -0.5000000   0.0000000), wk =   0.0416667
        k(   26) = (   0.2500000  -0.5000000   0.2500000), wk =   0.0416667
        k(   27) = (   0.2500000  -0.5000000  -0.5000000), wk =   0.0416667
        k(   28) = (   0.2500000  -0.5000000  -0.2500000), wk =   0.0416667
        k(   29) = (  -0.5000000   0.0000000  -0.0000000), wk =   0.0208333
        k(   30) = (  -0.5000000   0.0000000   0.2500000), wk =   0.0416667
        k(   31) = (  -0.5000000   0.0000000  -0.5000000), wk =   0.0208333
        k(   32) = (  -0.5000000   0.1666667  -0.0000000), wk =   0.0416667
        k(   33) = (  -0.5000000   0.1666667   0.2500000), wk =   0.0833333
        k(   34) = (  -0.5000000   0.1666667  -0.5000000), wk =   0.0416667
        k(   35) = (  -0.5000000   0.3333333  -0.0000000), wk =   0.0416667
        k(   36) = (  -0.5000000   0.3333333   0.2500000), wk =   0.0833333
        k(   37) = (  -0.5000000   0.3333333  -0.5000000), wk =   0.0416667
        k(   38) = (  -0.5000000  -0.5000000  -0.0000000), wk =   0.0208333
        k(   39) = (  -0.5000000  -0.5000000   0.2500000), wk =   0.0416667
        k(   40) = (  -0.5000000  -0.5000000  -0.5000000), wk =   0.0208333

     Dense  grid:    23435 G-vectors     FFT dimensions: (  45,  25,  50)

     Smooth grid:     6955 G-vectors     FFT dimensions: (  32,  18,  36)

     Dynamical RAM for                 wfc:       0.03 MB

     Dynamical RAM for     wfc (w. buffer):       1.08 MB

     Dynamical RAM for           str. fact:       0.04 MB

     Dynamical RAM for           local pot:       0.00 MB

     Dynamical RAM for          nlocal pot:       0.05 MB

     Dynamical RAM for                qrad:       1.05 MB

     Dynamical RAM for          rho,v,vnew:       0.31 MB

     Dynamical RAM for               rhoin:       0.10 MB

     Dynamical RAM for            rho*nmix:       0.72 MB

     Dynamical RAM for           G-vectors:       0.17 MB

     Dynamical RAM for          h,s,v(r/c):       0.19 MB

     Dynamical RAM for          <psi|beta>:       0.01 MB

     Dynamical RAM for                 psi:       0.11 MB

     Dynamical RAM for                hpsi:       0.11 MB

     Dynamical RAM for                spsi:       0.11 MB

     Dynamical RAM for      wfcinit/wfcrot:       0.06 MB

     Dynamical RAM for           addusdens:       2.10 MB

     Dynamical RAM for          addusforce:       2.40 MB

     Dynamical RAM for         addusstress:       2.24 MB

     Estimated static dynamical RAM per process >       3.93 MB

     Estimated max dynamical RAM per process >       6.32 MB

     Estimated total dynamical RAM >      50.59 MB

     Initial potential from superposition of free atoms

     starting charge   23.99999, renormalised to   24.00000
     Starting wfcs are   16 randomized atomic wfcs

     total cpu time spent up to now is        1.2 secs

     Self-consistent Calculation

     iteration #  1     ecut=    35.00 Ry     beta= 0.40
     Davidson diagonalization with overlap
     ethr =  1.00E-02,  avg # of iterations =  4.1

     Threshold (ethr) on eigenvalues was too large:
     Diagonalizing with lowered threshold

     Davidson diagonalization with overlap
     ethr =  6.12E-04,  avg # of iterations =  1.3

     total cpu time spent up to now is        2.1 secs

     total energy              =    -127.55600901 Ry
     Harris-Foulkes estimate   =    -127.61886072 Ry
     estimated scf accuracy    <       0.14769189 Ry

     iteration #  2     ecut=    35.00 Ry     beta= 0.40
     Davidson diagonalization with overlap
     ethr =  6.15E-04,  avg # of iterations =  1.1

     total cpu time spent up to now is        2.5 secs

     total energy              =    -127.55120763 Ry
     Harris-Foulkes estimate   =    -127.56474065 Ry
     estimated scf accuracy    <       0.02762558 Ry

     iteration #  3     ecut=    35.00 Ry     beta= 0.40
     Davidson diagonalization with overlap
     ethr =  1.15E-04,  avg # of iterations =  2.4

     total cpu time spent up to now is        3.0 secs

     total energy              =    -127.55810937 Ry
     Harris-Foulkes estimate   =    -127.55818214 Ry
     estimated scf accuracy    <       0.00107384 Ry

     iteration #  4     ecut=    35.00 Ry     beta= 0.40
     Davidson diagonalization with overlap
     ethr =  4.47E-06,  avg # of iterations =  2.6

     total cpu time spent up to now is        3.4 secs

     total energy              =    -127.55821859 Ry
     Harris-Foulkes estimate   =    -127.55817815 Ry
     estimated scf accuracy    <       0.00036595 Ry

     iteration #  5     ecut=    35.00 Ry     beta= 0.40
     Davidson diagonalization with overlap
     ethr =  1.52E-06,  avg # of iterations =  2.8

     total cpu time spent up to now is        3.9 secs

     total energy              =    -127.55813971 Ry
     Harris-Foulkes estimate   =    -127.55845590 Ry
     estimated scf accuracy    <       0.00230703 Ry

     iteration #  6     ecut=    35.00 Ry     beta= 0.40
     Davidson diagonalization with overlap
     ethr =  1.52E-06,  avg # of iterations =  1.2

     total cpu time spent up to now is        4.2 secs

     total energy              =    -127.55829803 Ry
     Harris-Foulkes estimate   =    -127.55830442 Ry
     estimated scf accuracy    <       0.00001910 Ry

     iteration #  7     ecut=    35.00 Ry     beta= 0.40
     Davidson diagonalization with overlap
     ethr =  7.96E-08,  avg # of iterations =  2.0

     total cpu time spent up to now is        4.7 secs

     total energy              =    -127.55830188 Ry
     Harris-Foulkes estimate   =    -127.55830160 Ry
     estimated scf accuracy    <       0.00000155 Ry

     iteration #  8     ecut=    35.00 Ry     beta= 0.40
     Davidson diagonalization with overlap
     ethr =  6.47E-09,  avg # of iterations =  2.0

     total cpu time spent up to now is        5.1 secs

     End of self-consistent calculation

          k = 0.0000 0.0000 0.0000 (   863 PWs)   bands (ev):

   -26.0164 -25.0558  -9.5165  -8.6738  -6.0850  -5.1597  -2.3932  -2.3765
    -1.7293  -1.5148   2.8903   6.7411   6.9414   7.1915  16.5018  17.1195

     occupation numbers 
     1.0000   1.0000   1.0000   1.0000   1.0000   1.0000   1.0000   1.0000
     1.0000   1.0000   1.0000   0.0000   0.0000   0.0000   0.0000   0.0000

          k = 0.0000 0.0000 0.2984 (   866 PWs)   bands (ev):

   -25.9966 -25.0615 -10.0921  -8.4427  -6.2114  -4.2352  -2.7801  -2.3410
    -1.7400  -1.5329   3.2404   6.6268   6.9718   7.2483  15.0380  16.8011

     occupation numbers 
     1.0000   1.0000   1.0000   1.0000   1.0000   1.0000   1.0000   1.0000
     1.0000   1.0000   1.0000   0.0000   0.0000   0.0000   0.0000   0.0000

          k = 0.0000 0.0000-0.5968 (   886 PWs)   bands (ev):

   -25.9760 -25.0684 -10.5388  -8.1845  -6.3166  -3.4027  -3.2235  -2.3055
    -1.7528  -1.5522   3.6463   6.5112   7.0068   7.3043  13.5447  16.6450

     occupation numbers 
     1.0000   1.0000   1.0000   1.0000   1.0000   1.0000   1.0000   1.0000
     1.0000   1.0000   1.0000   0.0000   0.0000   0.0000   0.0000   0.0000

          k = 0.0000 0.3008 0.0000 (   859 PWs)   bands (ev):

   -25.8209 -24.9711  -9.2428  -8.4744  -5.7378  -5.1323  -3.4368  -2.2617
    -2.1868  -1.9039   3.2484   5.9389   6.3805   6.8139  17.0824  17.4976

     occupation numbers 
     1.0000   1.0000   1.0000   1.0000   1.0000   1.0000   1.0000   1.0000
     1.0000   1.0000   1.0000   0.0233   0.0000   0.0000   0.0000   0.0000

          k = 0.0000 0.3008 0.2984 (   869 PWs)   bands (ev):

   -25.8029 -24.9762  -9.7754  -8.2800  -5.8545  -4.3622  -3.4757  -2.4999
    -2.1393  -1.9151   3.5724   5.8065   6.4243   6.8558  15.4146  17.9936

     occupation numbers 
     1.0000   1.0000   1.0000   1.0000   1.0000   1.0000   1.0000   1.0000
     1.0000   1.0000   1.0000   0.2701   0.0000   0.0000   0.0000   0.0000

          k = 0.0000 0.3008-0.5968 (   870 PWs)   bands (ev):

   -25.7842 -24.9813 -10.1926  -8.0663  -5.9498  -3.7412  -3.6109  -2.6846
    -2.0172  -1.9321   3.9473   5.6582   6.4494   6.9019  14.1207  17.7989

     occupation numbers 
     1.0000   1.0000   1.0000   1.0000   1.0000   1.0000   1.0000   1.0000
     1.0000   1.0000   1.0000   0.8236   0.0000   0.0000   0.0000   0.0000

          k = 0.0000 0.6016 0.0000 (   858 PWs)   bands (ev):

   -25.3587 -24.8454  -8.5857  -8.0855  -5.4728  -5.0680  -4.7988  -2.8509
    -2.5100  -2.3416   4.1969   4.4674   4.7902   6.3251  17.9097  18.4472

     occupation numbers 
     1.0000   1.0000   1.0000   1.0000   1.0000   1.0000   1.0000   1.0000
     1.0000   1.0000   1.0000   1.0000   1.0000   0.0000   0.0000   0.0000

          k = 0.0000 0.6016 0.2984 (   868 PWs)   bands (ev):

   -25.3461 -24.8469  -8.9816  -8.0193  -5.1360  -5.0291  -4.8842  -2.6474
    -2.4948  -2.4551   4.2719   4.5152   4.8012   6.4091  16.4411  18.6535

     occupation numbers 
     1.0000   1.0000   1.0000   1.0000   1.0000   1.0000   1.0000   1.0000
     1.0000   1.0000   1.0000   1.0000   1.0000   0.0000   0.0000   0.0000

          k = 0.0000 0.6016-0.5968 (   864 PWs)   bands (ev):

   -25.3332 -24.8478  -9.3014  -7.9471  -5.0171  -4.9564  -4.9268  -2.5593
    -2.5471  -2.2859   4.1587   4.7376   4.7683   6.4960  15.6448  19.2975

     occupation numbers 
     1.0000   1.0000   1.0000   1.0000   1.0000   1.0000   1.0000   1.0000
     1.0000   1.0000   1.0000   1.0000   1.0000   0.0000   0.0000   0.0000

          k = 0.0000-0.9024 0.0000 (   868 PWs)   bands (ev):

   -24.9477 -24.9472  -8.0429  -8.0428  -5.8403  -5.8400  -3.5755  -3.5753
    -2.6290  -2.6290   3.8848   3.8850   5.3761   5.3761  19.2386  19.2387

     occupation numbers 
     1.0000   1.0000   1.0000   1.0000   1.0000   1.0000   1.0000   1.0000
     1.0000   1.0000   1.0000   1.0000   0.9999   0.9999   0.0000   0.0000

          k = 0.0000-0.9024 0.2984 (   878 PWs)   bands (ev):

   -24.9426 -24.9421  -8.2085  -8.2084  -5.7150  -5.7147  -3.6340  -3.6338
    -2.5069  -2.5069   3.8198   3.8200   5.5430   5.5431  17.8278  17.8279

     occupation numbers 
     1.0000   1.0000   1.0000   1.0000   1.0000   1.0000   1.0000   1.0000
     1.0000   1.0000   1.0000   1.0000   0.9833   0.9832   0.0000   0.0000

          k = 0.0000-0.9024-0.5968 (   880 PWs)   bands (ev):

   -24.9372 -24.9367  -8.3487  -8.3486  -5.6456  -5.6452  -3.6694  -3.6693
    -2.3509  -2.3508   3.7038   3.7040   5.7115   5.7115  17.7295  17.7297

     occupation numbers 
     1.0000   1.0000   1.0000   1.0000   1.0000   1.0000   1.0000   1.0000
     1.0000   1.0000   1.0000   1.0000   0.6462   0.6461   0.0000   0.0000

          k = 0.2500 0.0000 0.1972 (   863 PWs)   bands (ev):

   -25.8798 -25.2010  -9.6042  -8.9755  -5.7114  -4.7684  -2.4463  -2.2481
    -2.2154  -1.6392   3.6879   6.5239   6.7768   7.0942  16.2525  16.5359

     occupation numbers 
     1.0000   1.0000   1.0000   1.0000   1.0000   1.0000   1.0000   1.0000
     1.0000   1.0000   1.0000   0.0000   0.0000   0.0000   0.0000   0.0000

          k = 0.2500 0.0000 0.4956 (   872 PWs)   bands (ev):

   -25.8539 -25.2130 -10.2471  -8.5901  -5.8931  -3.7674  -3.0503  -2.2013
    -2.0954  -1.6696   4.1329   6.4924   6.6261   7.1864  14.1604  17.4821

     occupation numbers 
     1.0000   1.0000   1.0000   1.0000   1.0000   1.0000   1.0000   1.0000
     1.0000   1.0000   1.0000   0.0000   0.0000   0.0000   0.0000   0.0000

          k = 0.2500 0.0000-0.3996 (   866 PWs)   bands (ev):

   -25.8604 -25.2194 -10.1280  -8.4187  -5.9415  -3.9108  -3.1709  -2.2101
    -2.1272  -1.6776   3.9200   6.3385   6.6528   7.2145  14.4976  17.5951

     occupation numbers 
     1.0000   1.0000   1.0000   1.0000   1.0000   1.0000   1.0000   1.0000
     1.0000   1.0000   1.0000   0.0000   0.0000   0.0000   0.0000   0.0000

          k = 0.2500 0.0000-0.1012 (   855 PWs)   bands (ev):

   -25.8858 -25.2075  -9.4386  -8.8441  -5.7054  -4.9800  -2.5973  -2.2569
    -2.2130  -1.6477   3.5133   6.3737   6.8030   7.1213  16.6346  16.7135

     occupation numbers 
     1.0000   1.0000   1.0000   1.0000   1.0000   1.0000   1.0000   1.0000
     1.0000   1.0000   1.0000   0.0000   0.0000   0.0000   0.0000   0.0000

          k = 0.2500 0.3008 0.1972 (   863 PWs)   bands (ev):

   -25.6982 -25.0978  -9.3263  -8.7548  -5.5044  -4.8685  -3.1965  -2.4420
    -2.2813  -2.0428   3.8708   5.9249   6.0597   6.8101  16.5513  16.9381

     occupation numbers 
     1.0000   1.0000   1.0000   1.0000   1.0000   1.0000   1.0000   1.0000
     1.0000   1.0000   1.0000   0.0326   0.0006   0.0000   0.0000   0.0000

          k = 0.2500 0.3008 0.4956 (   872 PWs)   bands (ev):

   -25.6750 -25.1079  -9.9213  -8.4205  -5.6804  -4.1193  -3.3150  -2.6070
    -2.2010  -2.0578   4.2569   5.9045   5.9451   6.8535  14.6796  17.8420

     occupation numbers 
     1.0000   1.0000   1.0000   1.0000   1.0000   1.0000   1.0000   1.0000
     1.0000   1.0000   1.0000   0.0515   0.0200   0.0000   0.0000   0.0000

          k = 0.2500 0.3008-0.3996 (   861 PWs)   bands (ev):

   -25.6809 -25.1136  -9.8086  -8.2647  -5.7376  -4.2054  -3.3125  -2.7173
    -2.3189  -2.0320   4.1140   5.9016   5.9359   6.7824  14.9514  18.4122

     occupation numbers 
     1.0000   1.0000   1.0000   1.0000   1.0000   1.0000   1.0000   1.0000
     1.0000   1.0000   1.0000   0.0547   0.0251   0.0000   0.0000   0.0000

          k = 0.2500 0.3008-0.1012 (   862 PWs)   bands (ev):

   -25.7039 -25.1039  -9.1726  -8.6323  -5.5109  -5.0266  -3.1844  -2.5216
    -2.4339  -2.0168   3.7528   5.9273   6.0682   6.7268  16.9054  17.0430

     occupation numbers 
     1.0000   1.0000   1.0000   1.0000   1.0000   1.0000   1.0000   1.0000
     1.0000   1.0000   1.0000   0.0309   0.0004   0.0000   0.0000   0.0000

          k = 0.2500 0.6016 0.1972 (   869 PWs)   bands (ev):

   -25.2799 -24.9171  -8.6678  -8.2976  -5.6064  -5.5453  -3.8586  -2.7809
    -2.4340  -2.3276   3.7549   4.3422   5.3907   6.5174  17.3565  17.9418

     occupation numbers 
     1.0000   1.0000   1.0000   1.0000   1.0000   1.0000   1.0000   1.0000
     1.0000   1.0000   1.0000   1.0000   0.9999   0.0000   0.0000   0.0000

          k = 0.2500 0.6016 0.4956 (   862 PWs)   bands (ev):

   -25.2642 -24.9211  -9.1041  -8.1398  -5.6758  -5.2725  -3.8729  -2.5332
    -2.4564  -2.3798   3.7733   4.3681   5.4978   6.5766  16.0647  18.5449

     occupation numbers 
     1.0000   1.0000   1.0000   1.0000   1.0000   1.0000   1.0000   1.0000
     1.0000   1.0000   1.0000   1.0000   0.9953   0.0000   0.0000   0.0000

          k = 0.2500 0.6016-0.3996 (   864 PWs)   bands (ev):

   -25.2690 -24.9257  -9.0087  -8.0250  -5.7228  -5.2941  -3.8487  -2.6492
    -2.5851  -2.3859   3.8956   4.4825   5.3136   6.4495  16.1813  18.7941

     occupation numbers 
     1.0000   1.0000   1.0000   1.0000   1.0000   1.0000   1.0000   1.0000
     1.0000   1.0000   1.0000   1.0000   1.0000   0.0000   0.0000   0.0000

          k = 0.2500 0.6016-0.1012 (   870 PWs)   bands (ev):

   -25.2848 -24.9219  -8.5471  -8.1992  -5.6220  -5.5871  -3.8440  -2.9661
    -2.4612  -2.3860   3.8888   4.4636   5.2245   6.3909  17.5098  17.8162

     occupation numbers 
     1.0000   1.0000   1.0000   1.0000   1.0000   1.0000   1.0000   1.0000
     1.0000   1.0000   1.0000   1.0000   1.0000   0.0000   0.0000   0.0000

          k = 0.2500-0.9024 0.1972 (   874 PWs)   bands (ev):

   -24.9407 -24.9402  -8.1647  -8.1647  -6.0808  -6.0806  -3.1475  -3.1474
    -2.5349  -2.5348   3.3967   3.3968   5.9629   5.9629  18.3595  18.3595

     occupation numbers 
     1.0000   1.0000   1.0000   1.0000   1.0000   1.0000   1.0000   1.0000
     1.0000   1.0000   1.0000   1.0000   0.0126   0.0126   0.0000   0.0000

          k = 0.2500-0.9024 0.4956 (   862 PWs)   bands (ev):

   -24.9354 -24.9349  -8.3145  -8.3145  -6.0023  -6.0021  -3.1723  -3.1722
    -2.4059  -2.4058   3.3625   3.3627   6.0886   6.0886  17.8635  17.8637

     occupation numbers 
     1.0000   1.0000   1.0000   1.0000   1.0000   1.0000   1.0000   1.0000
     1.0000   1.0000   1.0000   1.0000   0.0002   0.0002   0.0000   0.0000

          k = 0.2500-0.9024-0.3996 (   866 PWs)   bands (ev):

   -24.9397 -24.9392  -8.2301  -8.2301  -6.0159  -6.0157  -3.1899  -3.1898
    -2.5033  -2.5032   3.5128   3.5129   5.9388   5.9388  17.8207  17.8209

     occupation numbers 
     1.0000   1.0000   1.0000   1.0000   1.0000   1.0000   1.0000   1.0000
     1.0000   1.0000   1.0000   1.0000   0.0234   0.0234   0.0000   0.0000

          k = 0.2500-0.9024-0.1012 (   864 PWs)   bands (ev):

   -24.9449 -24.9444  -8.0773  -8.0773  -6.0830  -6.0828  -3.1947  -3.1946
    -2.6224  -2.6223   3.5680   3.5682   5.8117   5.8117  18.1850  18.1851

     occupation numbers 
     1.0000   1.0000   1.0000   1.0000   1.0000   1.0000   1.0000   1.0000
     1.0000   1.0000   1.0000   1.0000   0.2526   0.2526   0.0000   0.0000

          k =-0.5000 0.0000-0.3944 (   862 PWs)   bands (ev):

   -25.5451 -25.5446  -9.4781  -9.4780  -4.8065  -4.8064  -2.6462  -2.6462
    -1.9417  -1.9414   5.2985   5.2985   6.9040   6.9042  15.7221  15.7222

     occupation numbers 
     1.0000   1.0000   1.0000   1.0000   1.0000   1.0000   1.0000   1.0000
     1.0000   1.0000   1.0000   1.0000   0.0000   0.0000   0.0000   0.0000

          k =-0.5000 0.0000-0.0960 (   857 PWs)   bands (ev):

   -25.5646 -25.5376  -9.6841  -8.9101  -5.3058  -4.6019  -3.0291  -2.3753
    -1.9775  -1.9230   4.9751   5.2787   6.8450   7.0178  15.0338  17.4040

     occupation numbers 
     1.0000   1.0000   1.0000   1.0000   1.0000   1.0000   1.0000   1.0000
     1.0000   1.0000   1.0000   1.0000   0.0000   0.0000   0.0000   0.0000

          k =-0.5000 0.0000-0.9912 (   868 PWs)   bands (ev):

   -25.5579 -25.5574  -9.1878  -9.1878  -4.9876  -4.9875  -2.8215  -2.8215
    -1.9595  -1.9593   4.9674   4.9674   6.9574   6.9575  16.4248  16.4248

     occupation numbers 
     1.0000   1.0000   1.0000   1.0000   1.0000   1.0000   1.0000   1.0000
     1.0000   1.0000   1.0000   1.0000   0.0000   0.0000   0.0000   0.0000

          k =-0.5000 0.3008-0.3944 (   872 PWs)   bands (ev):

   -25.4003 -25.3998  -9.2148  -9.2148  -4.9451  -4.9451  -2.6591  -2.6591
    -2.4057  -2.4056   5.0384   5.0384   6.4442   6.4443  16.1295  16.1296

     occupation numbers 
     1.0000   1.0000   1.0000   1.0000   1.0000   1.0000   1.0000   1.0000
     1.0000   1.0000   1.0000   1.0000   0.0000   0.0000   0.0000   0.0000

          k =-0.5000 0.3008-0.0960 (   864 PWs)   bands (ev):

   -25.4176 -25.3939  -9.3989  -8.6995  -5.3597  -4.7723  -2.9202  -2.5856
    -2.4954  -2.2815   4.8521   5.0528   6.3573   6.4755  15.5101  17.6828

     occupation numbers 
     1.0000   1.0000   1.0000   1.0000   1.0000   1.0000   1.0000   1.0000
     1.0000   1.0000   1.0000   1.0000   0.0000   0.0000   0.0000   0.0000

          k =-0.5000 0.3008-0.9912 (   858 PWs)   bands (ev):

   -25.4120 -25.4115  -8.9454  -8.9454  -5.0861  -5.0861  -2.7491  -2.7490
    -2.5288  -2.5286   4.8858   4.8858   6.3974   6.3975  16.6729  16.6730

     occupation numbers 
     1.0000   1.0000   1.0000   1.0000   1.0000   1.0000   1.0000   1.0000
     1.0000   1.0000   1.0000   1.0000   0.0000   0.0000   0.0000   0.0000

          k =-0.5000 0.6016-0.3944 (   866 PWs)   bands (ev):

   -25.0950 -25.0945  -8.6213  -8.6213  -5.7208  -5.7206  -2.8574  -2.8573
    -2.4655  -2.4655   3.8259   3.8260   6.3078   6.3078  17.1721  17.1722

     occupation numbers 
     1.0000   1.0000   1.0000   1.0000   1.0000   1.0000   1.0000   1.0000
     1.0000   1.0000   1.0000   1.0000   0.0000   0.0000   0.0000   0.0000

          k =-0.5000 0.6016-0.0960 (   866 PWs)   bands (ev):

   -25.1064 -25.0925  -8.7212  -8.2734  -5.8960  -5.6636  -2.9369  -2.8325
    -2.7001  -2.3670   3.8629   3.9009   6.1726   6.2128  16.8058  18.3321

     occupation numbers 
     1.0000   1.0000   1.0000   1.0000   1.0000   1.0000   1.0000   1.0000
     1.0000   1.0000   1.0000   1.0000   0.0000   0.0000   0.0000   0.0000

          k =-0.5000 0.6016-0.9912 (   870 PWs)   bands (ev):

   -25.1047 -25.1042  -8.4093  -8.4093  -5.7644  -5.7642  -2.9504  -2.9503
    -2.6318  -2.6318   4.0043   4.0044   6.0756   6.0756  17.2716  17.2717

     occupation numbers 
     1.0000   1.0000   1.0000   1.0000   1.0000   1.0000   1.0000   1.0000
     1.0000   1.0000   1.0000   1.0000   0.0003   0.0003   0.0000   0.0000

          k =-0.5000-0.9024-0.3944 (   860 PWs)   bands (ev):

   -24.9338 -24.9333  -8.2800  -8.2800  -6.2667  -6.2665  -2.7228  -2.7227
    -2.5034  -2.5033   3.0982   3.0984   6.3852   6.3852  18.0054  18.0056

     occupation numbers 
     1.0000   1.0000   1.0000   1.0000   1.0000   1.0000   1.0000   1.0000
     1.0000   1.0000   1.0000   1.0000   0.0000   0.0000   0.0000   0.0000

          k =-0.5000-0.9024-0.0960 (   868 PWs)   bands (ev):

   -24.9377 -24.9372  -8.1869  -8.1869  -6.3021  -6.3019  -2.6872  -2.6871
    -2.6230  -2.6230   3.1780   3.1781   6.2688   6.2689  18.5013  18.5015

     occupation numbers 
     1.0000   1.0000   1.0000   1.0000   1.0000   1.0000   1.0000   1.0000
     1.0000   1.0000   1.0000   1.0000   0.0000   0.0000   0.0000   0.0000

          k =-0.5000-0.9024-0.9912 (   868 PWs)   bands (ev):

   -24.9420 -24.9415  -8.1133  -8.1133  -6.2724  -6.2722  -2.8309  -2.8308
    -2.6500  -2.6500   3.3473   3.3474   6.1535   6.1536  17.6996  17.6997

     occupation numbers 
     1.0000   1.0000   1.0000   1.0000   1.0000   1.0000   1.0000   1.0000
     1.0000   1.0000   1.0000   1.0000   0.0000   0.0000   0.0000   0.0000

     the Fermi energy is     5.7476 ev

!    total energy              =    -127.55830276 Ry
     Harris-Foulkes estimate   =    -127.55830218 Ry
     estimated scf accuracy    <       0.00000012 Ry

     The total energy is the sum of the following terms:

     one-electron contribution =     -55.53296100 Ry
     hartree contribution      =      39.84078030 Ry
     xc contribution           =     -27.70938224 Ry
     ewald contribution        =     -84.15579183 Ry
     smearing contrib. (-TS)   =      -0.00094799 Ry

     convergence has been achieved in   8 iterations

     Forces acting on atoms (cartesian axes, Ry/au):

     atom    1 type  1   force =    -0.01820833    0.00000000    0.55569728
     atom    2 type  1   force =    -0.01818112   -0.00000000    0.55556651
     atom    3 type  1   force =     0.01818112   -0.00000000   -0.55556651
     atom    4 type  1   force =     0.01820833    0.00000000   -0.55569728
     The non-local contrib.  to forces
     atom    1 type  1   force =     0.35680161    0.00000000   -3.46001857
     atom    2 type  1   force =     0.35683909    0.00000000   -3.46014941
     atom    3 type  1   force =    -0.35683909    0.00000000    3.46014941
     atom    4 type  1   force =    -0.35680161    0.00000000    3.46001857
     The ionic contribution  to forces
     atom    1 type  1   force =    -1.06558674   -0.00000000   15.80231937
     atom    2 type  1   force =    -1.06558674    0.00000000   15.80231937
     atom    3 type  1   force =     1.06558674   -0.00000000  -15.80231937
     atom    4 type  1   force =     1.06558674   -0.00000000  -15.80231937
     The local contribution  to forces
     atom    1 type  1   force =     0.69068161    0.00000000  -11.78713345
     atom    2 type  1   force =     0.69058581    0.00000000  -11.78688400
     atom    3 type  1   force =    -0.69058581    0.00000000   11.78688400
     atom    4 type  1   force =    -0.69068161   -0.00000000   11.78713345
     The core correction contribution to forces
     atom    1 type  1   force =     0.00000000    0.00000000    0.00000000
     atom    2 type  1   force =     0.00000000    0.00000000    0.00000000
     atom    3 type  1   force =     0.00000000    0.00000000    0.00000000
     atom    4 type  1   force =     0.00000000    0.00000000    0.00000000
     The Hubbard contrib.    to forces
     atom    1 type  1   force =     0.00000000    0.00000000    0.00000000
     atom    2 type  1   force =     0.00000000    0.00000000    0.00000000
     atom    3 type  1   force =     0.00000000    0.00000000    0.00000000
     atom    4 type  1   force =     0.00000000    0.00000000    0.00000000
     The SCF correction term to forces
     atom    1 type  1   force =    -0.00010481   -0.00000000    0.00052994
     atom    2 type  1   force =    -0.00001928    0.00000000    0.00028056
     atom    3 type  1   force =     0.00001928   -0.00000000   -0.00028056
     atom    4 type  1   force =     0.00010481   -0.00000000   -0.00052994

     Total force =     1.111859     Total SCF correction =     0.000861


     Computing stress (Cartesian axis) and pressure

          total   stress  (Ry/bohr**3)                   (kbar)     P=  521.03
   0.00051198   0.00000000  -0.00031758         75.31      0.00    -46.72
   0.00000000   0.00036194   0.00000000          0.00     53.24      0.00
  -0.00031758   0.00000000   0.00975181        -46.72      0.00   1434.54

     kinetic stress (kbar)  22618.34      0.00    342.92
                                0.00  22446.64      0.00
                              342.92      0.00  20113.42

     local   stress (kbar) -18492.52     -0.00   2906.45
                               -0.00 -19945.02     -0.00
                             2906.45     -0.00 -20114.93

     nonloc. stress (kbar)  12861.39      0.00    178.09
                                0.00  12786.05      0.00
                              178.09      0.00  11194.02

     hartree stress (kbar)   9160.52     -0.00   -715.89
                               -0.00   9780.89      0.00
                             -715.89      0.00   4729.57

     exc-cor stress (kbar)  -5220.18      0.00    -10.35
                                0.00  -5217.84      0.00
                              -10.35      0.00  -5136.96

     corecor stress (kbar)      0.00      0.00      0.00
                                0.00      0.00      0.00
                                0.00      0.00      0.00

     ewald   stress (kbar) -20852.24      0.00  -2747.94
                                0.00 -19797.47      0.00
                            -2747.94      0.00  -9350.57

     hubbard stress (kbar)      0.00      0.00      0.00
                                0.00      0.00      0.00
                                0.00      0.00      0.00

     london  stress (kbar)      0.00      0.00      0.00
                                0.00      0.00      0.00
                                0.00      0.00      0.00

     DFT-D3  stress (kbar)      0.00      0.00      0.00
                                0.00      0.00      0.00
                                0.00      0.00      0.00

     XDM     stress (kbar)      0.00      0.00      0.00
                                0.00      0.00      0.00
                                0.00      0.00      0.00

     dft-nl  stress (kbar)      0.00      0.00      0.00
                                0.00      0.00      0.00
                                0.00      0.00      0.00

     TS-vdW  stress (kbar)      0.00      0.00      0.00
                                0.00      0.00      0.00
                                0.00      0.00      0.00



     BFGS Geometry Optimization

     number of scf cycles    =   1
     number of bfgs steps    =   0

     enthalpy new            =    -127.4236542424 Ry

     new trust radius        =       0.5000000000 bohr
     new conv_thr            =       0.0000010000 Ry

     new unit-cell volume =    285.84345 a.u.^3 (    42.35763 Ang^3 )
     density =      2.50889 g/cm^3

CELL_PARAMETERS (alat=  8.10979371)
   0.999450769   0.000000000  -0.005476535
   0.000000000   0.552342694   0.000000000
  -0.665044668   0.000000000   0.974441989

ATOMIC_POSITIONS (crystal)
O        0.124731853   0.000000000   0.209415650
O        0.624725394   0.500000000   0.209402374
O        0.375274606   0.500000000   0.790597626
O        0.875268147   0.000000000   0.790584350



     Writing output data file O2alpha.save/
     NEW-OLD atomic charge density approx. for the potential
     extrapolated charge   27.21155, renormalised to   24.00000

     total cpu time spent up to now is        5.6 secs

     Self-consistent Calculation

     iteration #  1     ecut=    35.00 Ry     beta= 0.40
     Davidson diagonalization with overlap
     ethr =  1.00E-06,  avg # of iterations =  6.3

     total cpu time spent up to now is        6.7 secs

     total energy              =    -125.65007957 Ry
     Harris-Foulkes estimate   =    -124.47067688 Ry
     estimated scf accuracy    <       2.04162962 Ry

     iteration #  2     ecut=    35.00 Ry     beta= 0.40
     Davidson diagonalization with overlap
     ethr =  8.51E-03,  avg # of iterations =  3.0

     total cpu time spent up to now is        7.3 secs

     total energy              =    -127.19544187 Ry
     Harris-Foulkes estimate   =    -127.34950698 Ry
     estimated scf accuracy    <       0.44032897 Ry

     iteration #  3     ecut=    35.00 Ry     beta= 0.40
     Davidson diagonalization with overlap
     ethr =  1.83E-03,  avg # of iterations =  1.1

     total cpu time spent up to now is        7.7 secs

     total energy              =    -127.14062590 Ry
     Harris-Foulkes estimate   =    -127.21622362 Ry
     estimated scf accuracy    <       0.11887283 Ry

     iteration #  4     ecut=    35.00 Ry     beta= 0.40
     Davidson diagonalization with overlap
     ethr =  4.95E-04,  avg # of iterations =  2.0

     total cpu time spent up to now is        8.1 secs

     total energy              =    -127.17365111 Ry
     Harris-Foulkes estimate   =    -127.18183542 Ry
     estimated scf accuracy    <       0.01747872 Ry

     iteration #  5     ecut=    35.00 Ry     beta= 0.40
     Davidson diagonalization with overlap
     ethr =  7.28E-05,  avg # of iterations =  2.0

     total cpu time spent up to now is        8.6 secs

     total energy              =    -127.17520269 Ry
     Harris-Foulkes estimate   =    -127.17569043 Ry
     estimated scf accuracy    <       0.00428255 Ry

     iteration #  6     ecut=    35.00 Ry     beta= 0.40
     Davidson diagonalization with overlap
     ethr =  1.78E-05,  avg # of iterations =  1.0

     total cpu time spent up to now is        8.9 secs

     total energy              =    -127.17486676 Ry
     Harris-Foulkes estimate   =    -127.17543200 Ry
     estimated scf accuracy    <       0.00084878 Ry

     iteration #  7     ecut=    35.00 Ry     beta= 0.40
     Davidson diagonalization with overlap
     ethr =  3.54E-06,  avg # of iterations =  2.0

     total cpu time spent up to now is        9.4 secs

     total energy              =    -127.17511017 Ry
     Harris-Foulkes estimate   =    -127.17529954 Ry
     estimated scf accuracy    <       0.00033503 Ry

     iteration #  8     ecut=    35.00 Ry     beta= 0.40
     Davidson diagonalization with overlap
     ethr =  1.40E-06,  avg # of iterations =  2.0

     total cpu time spent up to now is        9.9 secs

     total energy              =    -127.17518264 Ry
     Harris-Foulkes estimate   =    -127.17518231 Ry
     estimated scf accuracy    <       0.00000202 Ry

     iteration #  9     ecut=    35.00 Ry     beta= 0.40
     Davidson diagonalization with overlap
     ethr =  8.41E-09,  avg # of iterations =  2.0

     total cpu time spent up to now is       10.3 secs

     total energy              =    -127.17518391 Ry
     Harris-Foulkes estimate   =    -127.17518404 Ry
     estimated scf accuracy    <       0.00000147 Ry

     iteration # 10     ecut=    35.00 Ry     beta= 0.40
     Davidson diagonalization with overlap
     ethr =  6.13E-09,  avg # of iterations =  1.3

     total cpu time spent up to now is       10.7 secs

     End of self-consistent calculation

          k = 0.0000 0.0000 0.0000 (   863 PWs)   bands (ev):

   -18.3896 -16.3831 -14.6184 -13.5150  -4.3712  -3.2789  -1.8332  -1.3708
     0.9539   1.6975   1.9429   2.5478   2.8984   3.0561   3.0829   3.8821

     occupation numbers 
     1.0000   1.0000   1.0000   1.0000   1.0000   1.0000   1.0000   1.0000
     1.0000   0.2780   0.0008   0.0000   0.0000   0.0000   0.0000   0.0000

          k = 0.0014 0.0000 0.2575 (   866 PWs)   bands (ev):

   -18.2458 -16.4511 -14.9604 -13.3648  -3.5483  -3.5111  -2.2821  -1.0534
     1.0297   1.6654   1.8995   2.4520   2.8849   2.9318   3.1358   3.5919

     occupation numbers 
     1.0000   1.0000   1.0000   1.0000   1.0000   1.0000   1.0000   1.0000
     1.0000   0.3993   0.0036   0.0000   0.0000   0.0000   0.0000   0.0000

          k =-0.0028 0.0000-0.5150 (   886 PWs)   bands (ev):

   -18.0754 -16.5144 -15.3133 -13.2167  -3.6234  -2.8235  -2.4510  -0.6821
     1.1164   1.4738   1.8179   1.8587   2.3439   2.9491   3.1852   4.0349

     occupation numbers 
     1.0000   1.0000   1.0000   1.0000   1.0000   1.0000   1.0000   1.0000
     1.0000   0.9588   0.0329   0.0118   0.0000   0.0000   0.0000   0.0000

          k = 0.0000 0.3017 0.0000 (   859 PWs)   bands (ev):

   -18.0465 -16.2310 -14.3363 -13.3384  -4.0621  -2.8776  -1.7929  -1.0312
    -0.1861   0.7813   1.5092   1.6452   2.2022   2.7467   3.2500   3.9375

     occupation numbers 
     1.0000   1.0000   1.0000   1.0000   1.0000   1.0000   1.0000   1.0000
     1.0000   1.0000   0.9145   0.4822   0.0000   0.0000   0.0000   0.0000

          k = 0.0014 0.3017 0.2575 (   869 PWs)   bands (ev):

   -17.9114 -16.2873 -14.6541 -13.2137  -3.2977  -3.1088  -2.1458  -0.7352
    -0.1234   0.7247   1.4762   1.5713   2.2342   2.7738   3.0722   3.6613

     occupation numbers 
     1.0000   1.0000   1.0000   1.0000   1.0000   1.0000   1.0000   1.0000
     1.0000   1.0000   0.9565   0.7652   0.0000   0.0000   0.0000   0.0000

          k =-0.0028 0.3017-0.5150 (   870 PWs)   bands (ev):

   -17.7530 -16.3402 -14.9817 -13.0905  -3.2033  -2.6265  -2.2983  -0.3962
    -0.0038   0.7050   1.3798   1.4293   1.7692   2.5104   2.8111   4.0302

     occupation numbers 
     1.0000   1.0000   1.0000   1.0000   1.0000   1.0000   1.0000   1.0000
     1.0000   1.0000   0.9967   0.9861   0.0911   0.0000   0.0000   0.0000

          k = 0.0000 0.6035 0.0000 (   858 PWs)   bands (ev):

   -17.1766 -16.0150 -13.6510 -13.0133  -3.3216  -2.2825  -1.7961  -1.7112
    -1.3233  -0.0415   0.0896   0.4299   0.9009   2.1944   3.6150   4.0095

     occupation numbers 
     1.0000   1.0000   1.0000   1.0000   1.0000   1.0000   1.0000   1.0000
     1.0000   1.0000   1.0000   1.0000   1.0000   0.0000   0.0000   0.0000

          k = 0.0014 0.6035 0.2575 (   868 PWs)   bands (ev):

   -17.0710 -16.0312 -13.8911 -12.9749  -2.7218  -2.2033  -2.0614  -1.7661
    -1.4178   0.0098   0.1838   0.5012   0.8164   2.2509   3.3952   3.7518

     occupation numbers 
     1.0000   1.0000   1.0000   1.0000   1.0000   1.0000   1.0000   1.0000
     1.0000   1.0000   1.0000   1.0000   1.0000   0.0000   0.0000   0.0000

          k =-0.0028 0.6035-0.5150 (   864 PWs)   bands (ev):

   -16.9517 -16.0468 -14.1375 -12.9363  -2.3591  -2.0585  -2.0078  -1.7582
    -1.4031  -0.1632   0.3606   0.4041   0.7428   2.3207   2.7660   3.9022

     occupation numbers 
     1.0000   1.0000   1.0000   1.0000   1.0000   1.0000   1.0000   1.0000
     1.0000   1.0000   1.0000   1.0000   1.0000   0.0000   0.0000   0.0000

          k = 0.0000-0.9052 0.0000 (   868 PWs)   bands (ev):

   -16.2964 -16.2957 -13.0509 -13.0507  -2.9830  -2.9829  -2.0819  -2.0817
    -0.6355  -0.6351  -0.2367  -0.2364   1.1768   1.1768   3.9226   3.9232

     occupation numbers 
     1.0000   1.0000   1.0000   1.0000   1.0000   1.0000   1.0000   1.0000
     1.0000   1.0000   1.0000   1.0000   1.0000   1.0000   0.0000   0.0000

          k = 0.0014-0.9052 0.2575 (   878 PWs)   bands (ev):

   -16.2472 -16.2464 -13.1565 -13.1563  -2.7223  -2.7221  -2.1852  -2.1847
    -0.5139  -0.5134  -0.4001  -0.3998   1.2939   1.2939   3.6767   3.6773

     occupation numbers 
     1.0000   1.0000   1.0000   1.0000   1.0000   1.0000   1.0000   1.0000
     1.0000   1.0000   1.0000   1.0000   0.9998   0.9998   0.0000   0.0000

          k =-0.0028-0.9052-0.5150 (   880 PWs)   bands (ev):

   -16.1951 -16.1943 -13.2633 -13.2632  -2.7080  -2.7077  -1.7956  -1.7950
    -0.6865  -0.6862  -0.5511  -0.5507   1.4360   1.4360   3.4620   3.4627

     occupation numbers 
     1.0000   1.0000   1.0000   1.0000   1.0000   1.0000   1.0000   1.0000
     1.0000   1.0000   1.0000   1.0000   0.9834   0.9834   0.0000   0.0000

          k = 0.2511 0.0000 0.1714 (   863 PWs)   bands (ev):

   -18.0999 -16.6752 -14.5879 -13.8348  -3.8258  -2.7320  -1.9239  -0.6203
     0.7869   1.1083   1.8104   2.3656   2.5996   2.9300   2.9747   3.5338

     occupation numbers 
     1.0000   1.0000   1.0000   1.0000   1.0000   1.0000   1.0000   1.0000
     1.0000   1.0000   0.0390   0.0000   0.0000   0.0000   0.0000   0.0000

          k = 0.2525 0.0000 0.4289 (   872 PWs)   bands (ev):

   -17.8887 -16.7955 -15.0453 -13.5740  -2.9333  -2.7301  -2.5448  -0.2107
     0.7515   1.2170   1.7409   1.9503   2.4645   2.5005   3.0587   3.7355

     occupation numbers 
     1.0000   1.0000   1.0000   1.0000   1.0000   1.0000   1.0000   1.0000
     1.0000   1.0000   0.1492   0.0006   0.0000   0.0000   0.0000   0.0000

          k = 0.2483 0.0000-0.3437 (   866 PWs)   bands (ev):

   -17.9439 -16.8523 -14.9359 -13.4502  -3.2222  -2.8722  -2.5257  -0.4296
     0.8778   1.1939   1.7205   2.1017   2.4927   2.5437   3.0843   3.9932

     occupation numbers 
     1.0000   1.0000   1.0000   1.0000   1.0000   1.0000   1.0000   1.0000
     1.0000   1.0000   0.2039   0.0000   0.0000   0.0000   0.0000   0.0000

          k = 0.2497 0.0000-0.0862 (   855 PWs)   bands (ev):

   -18.1440 -16.7399 -14.4833 -13.7073  -4.0512  -2.6801  -2.1728  -0.7477
     0.8863   1.0890   1.7868   2.2631   2.6237   3.0023   3.1975   3.7646

     occupation numbers 
     1.0000   1.0000   1.0000   1.0000   1.0000   1.0000   1.0000   1.0000
     1.0000   1.0000   0.0646   0.0000   0.0000   0.0000   0.0000   0.0000

          k = 0.2511 0.3017 0.1714 (   863 PWs)   bands (ev):

   -17.7764 -16.4854 -14.3117 -13.6281  -3.5609  -2.4914  -1.8522  -0.4624
     0.0986   0.1137   1.3258   1.7083   1.8182   2.6919   3.1049   3.6090

     occupation numbers 
     1.0000   1.0000   1.0000   1.0000   1.0000   1.0000   1.0000   1.0000
     1.0000   1.0000   0.9995   0.2417   0.0327   0.0000   0.0000   0.0000

          k = 0.2525 0.3017 0.4289 (   872 PWs)   bands (ev):

   -17.5805 -16.5891 -14.7339 -13.4034  -2.7164  -2.5109  -2.3842  -0.0806
     0.0505   0.2095   1.2601   1.6189   1.6802   2.4630   2.7340   3.7690

     occupation numbers 
     1.0000   1.0000   1.0000   1.0000   1.0000   1.0000   1.0000   1.0000
     1.0000   1.0000   1.0000   0.5904   0.3413   0.0000   0.0000   0.0000

          k = 0.2483 0.3017-0.3437 (   861 PWs)   bands (ev):

   -17.6326 -16.6420 -14.6306 -13.2893  -3.0187  -2.6827  -2.2957  -0.2399
     0.0484   0.1808   1.3321   1.6802   1.6894   2.6456   2.7196   4.0083

     occupation numbers 
     1.0000   1.0000   1.0000   1.0000   1.0000   1.0000   1.0000   1.0000
     1.0000   1.0000   0.9993   0.3411   0.3070   0.0000   0.0000   0.0000

          k = 0.2497 0.3017-0.0862 (   862 PWs)   bands (ev):

   -17.8188 -16.5446 -14.2129 -13.5111  -3.7688  -2.4715  -2.0806  -0.5192
     0.0856   0.1001   1.3895   1.7372   1.8124   2.6100   3.3474   3.8310

     occupation numbers 
     1.0000   1.0000   1.0000   1.0000   1.0000   1.0000   1.0000   1.0000
     1.0000   1.0000   0.9955   0.1583   0.0373   0.0000   0.0000   0.0000

          k = 0.2511 0.6035 0.1714 (   869 PWs)   bands (ev):

   -16.9770 -16.1470 -13.6546 -13.2133  -2.9884  -2.7145  -1.8249  -1.7577
    -0.7944  -0.5123   0.0424   0.9059   1.1466   2.3768   3.4487   3.7362

     occupation numbers 
     1.0000   1.0000   1.0000   1.0000   1.0000   1.0000   1.0000   1.0000
     1.0000   1.0000   1.0000   1.0000   1.0000   0.0000   0.0000   0.0000

          k = 0.2525 0.6035 0.4289 (   862 PWs)   bands (ev):

   -16.8324 -16.1936 -13.9618 -13.1109  -2.7401  -2.1635  -2.0982  -1.9052
    -0.7967  -0.4419   0.0460   0.8688   1.1955   2.4155   2.9241   3.7514

     occupation numbers 
     1.0000   1.0000   1.0000   1.0000   1.0000   1.0000   1.0000   1.0000
     1.0000   1.0000   1.0000   1.0000   1.0000   0.0000   0.0000   0.0000

          k = 0.2483 0.6035-0.3437 (   864 PWs)   bands (ev):

   -16.8764 -16.2369 -13.8746 -13.0206  -2.9256  -2.2957  -2.1303  -1.9841
    -0.7112  -0.4410   0.1219   0.9604   1.0581   2.3047   3.1566   3.9504

     occupation numbers 
     1.0000   1.0000   1.0000   1.0000   1.0000   1.0000   1.0000   1.0000
     1.0000   1.0000   1.0000   1.0000   1.0000   0.0000   0.0000   0.0000

          k = 0.2497 0.6035-0.0862 (   870 PWs)   bands (ev):

   -17.0146 -16.1926 -13.5705 -13.1221  -3.1332  -2.7508  -2.0817  -1.8628
    -0.6062  -0.4432   0.1421   0.9801   1.0039   2.2567   3.6381   3.9247

     occupation numbers 
     1.0000   1.0000   1.0000   1.0000   1.0000   1.0000   1.0000   1.0000
     1.0000   1.0000   1.0000   1.0000   1.0000   0.0000   0.0000   0.0000

          k = 0.2511-0.9052 0.1714 (   874 PWs)   bands (ev):

   -16.2433 -16.2425 -13.1324 -13.1323  -3.2223  -3.2222  -2.1086  -2.1082
    -0.8951  -0.8949   0.1249   0.1253   1.7754   1.7755   3.7128   3.7134

     occupation numbers 
     1.0000   1.0000   1.0000   1.0000   1.0000   1.0000   1.0000   1.0000
     1.0000   1.0000   1.0000   1.0000   0.0810   0.0809   0.0000   0.0000

          k = 0.2525-0.9052 0.4289 (   862 PWs)   bands (ev):

   -16.1914 -16.1906 -13.2394 -13.2392  -3.1151  -3.1149  -2.0281  -2.0276
    -0.8548  -0.8544   0.0631   0.0635   1.8506   1.8506   3.4703   3.4709

     occupation numbers 
     1.0000   1.0000   1.0000   1.0000   1.0000   1.0000   1.0000   1.0000
     1.0000   1.0000   1.0000   1.0000   0.0146   0.0146   0.0000   0.0000

          k = 0.2483-0.9052-0.3437 (   866 PWs)   bands (ev):

   -16.2293 -16.2285 -13.1634 -13.1632  -3.2219  -3.2217  -2.0622  -2.0616
    -0.8737  -0.8735   0.1733   0.1737   1.7263   1.7264   3.6572   3.6579

     occupation numbers 
     1.0000   1.0000   1.0000   1.0000   1.0000   1.0000   1.0000   1.0000
     1.0000   1.0000   1.0000   1.0000   0.1871   0.1869   0.0000   0.0000

          k = 0.2497-0.9052-0.0862 (   864 PWs)   bands (ev):

   -16.2790 -16.2783 -13.0576 -13.0575  -3.2810  -3.2809  -2.2713  -2.2709
    -0.8073  -0.8071   0.2532   0.2536   1.6296   1.6297   3.8763   3.8769

     occupation numbers 
     1.0000   1.0000   1.0000   1.0000   1.0000   1.0000   1.0000   1.0000
     1.0000   1.0000   1.0000   1.0000   0.5464   0.5463   0.0000   0.0000

          k =-0.5022 0.0000-0.3427 (   862 PWs)   bands (ev):

   -17.3881 -17.3873 -14.3528 -14.3526  -2.6846  -2.6841  -1.1210  -1.1206
     0.9994   0.9994   1.4707   1.4710   2.7587   2.7589   2.9817   2.9823

     occupation numbers 
     1.0000   1.0000   1.0000   1.0000   1.0000   1.0000   1.0000   1.0000
     1.0000   1.0000   0.9615   0.9613   0.0000   0.0000   0.0000   0.0000

          k =-0.5007 0.0000-0.0852 (   857 PWs)   bands (ev):

   -17.5525 -17.3186 -14.4979 -13.9833  -3.6115  -2.1712  -1.0367  -0.9539
     0.6971   0.9759   1.3901   1.5144   2.4521   2.7052   2.8583   3.9616

     occupation numbers 
     1.0000   1.0000   1.0000   1.0000   1.0000   1.0000   1.0000   1.0000
     1.0000   1.0000   0.9954   0.9056   0.0000   0.0000   0.0000   0.0000

          k =-0.5050 0.0000-0.8578 (   868 PWs)   bands (ev):

   -17.4957 -17.4950 -14.1238 -14.1236  -3.2354  -3.2349  -0.8858  -0.8853
     0.7530   0.7530   1.4274   1.4277   2.8108   2.8109   3.4908   3.4914

     occupation numbers 
     1.0000   1.0000   1.0000   1.0000   1.0000   1.0000   1.0000   1.0000
     1.0000   1.0000   0.9867   0.9866   0.0000   0.0000   0.0000   0.0000

          k =-0.5022 0.3017-0.3427 (   872 PWs)   bands (ev):

   -17.1224 -17.1216 -14.1005 -14.1003  -2.5281  -2.5275  -1.2886  -1.2882
     0.6428   0.6430   0.8470   0.8471   2.2576   2.2578   3.1042   3.1049

     occupation numbers 
     1.0000   1.0000   1.0000   1.0000   1.0000   1.0000   1.0000   1.0000
     1.0000   1.0000   1.0000   1.0000   0.0000   0.0000   0.0000   0.0000

          k =-0.5007 0.3017-0.0852 (   864 PWs)   bands (ev):

   -17.2738 -17.0619 -14.2273 -13.7633  -3.3780  -2.0715  -1.2087  -1.1978
     0.4664   0.7311   0.7764   0.8120   2.1765   2.2677   2.6988   3.9877

     occupation numbers 
     1.0000   1.0000   1.0000   1.0000   1.0000   1.0000   1.0000   1.0000
     1.0000   1.0000   1.0000   1.0000   0.0000   0.0000   0.0000   0.0000

          k =-0.5050 0.3017-0.8578 (   858 PWs)   bands (ev):

   -17.2236 -17.2229 -13.8864 -13.8862  -3.0300  -3.0294  -1.1705  -1.1702
     0.6446   0.6446   0.7696   0.7697   2.2121   2.2123   3.5847   3.5853

     occupation numbers 
     1.0000   1.0000   1.0000   1.0000   1.0000   1.0000   1.0000   1.0000
     1.0000   1.0000   1.0000   1.0000   0.0000   0.0000   0.0000   0.0000

          k =-0.5022 0.6035-0.3427 (   866 PWs)   bands (ev):

   -16.5271 -16.5263 -13.5362 -13.5360  -2.5869  -2.5867  -2.2199  -2.2194
    -0.4037  -0.4035   0.4356   0.4358   2.1097   2.1098   3.3482   3.3488

     occupation numbers 
     1.0000   1.0000   1.0000   1.0000   1.0000   1.0000   1.0000   1.0000
     1.0000   1.0000   1.0000   1.0000   0.0000   0.0000   0.0000   0.0000

          k =-0.5007 0.6035-0.0852 (   866 PWs)   bands (ev):

   -16.6357 -16.4993 -13.5961 -13.3011  -3.0732  -2.6775  -2.1930  -1.8667
    -0.5039  -0.4839   0.4989   0.5137   2.0112   2.0211   3.1839   3.9612

     occupation numbers 
     1.0000   1.0000   1.0000   1.0000   1.0000   1.0000   1.0000   1.0000
     1.0000   1.0000   1.0000   1.0000   0.0001   0.0000   0.0000   0.0000

          k =-0.5050 0.6035-0.8578 (   870 PWs)   bands (ev):

   -16.6119 -16.6111 -13.3601 -13.3600  -2.7967  -2.7964  -2.4308  -2.4305
    -0.3333  -0.3332   0.5927   0.5930   1.9037   1.9038   3.7515   3.7521

     occupation numbers 
     1.0000   1.0000   1.0000   1.0000   1.0000   1.0000   1.0000   1.0000
     1.0000   1.0000   1.0000   1.0000   0.0031   0.0031   0.0000   0.0000

          k =-0.5022-0.9052-0.3427 (   860 PWs)   bands (ev):

   -16.1878 -16.1870 -13.2152 -13.2151  -3.4156  -3.4154  -2.2351  -2.2347
    -0.9640  -0.9637   0.5627   0.5630   2.2039   2.2040   3.4711   3.4717

     occupation numbers 
     1.0000   1.0000   1.0000   1.0000   1.0000   1.0000   1.0000   1.0000
     1.0000   1.0000   1.0000   1.0000   0.0000   0.0000   0.0000   0.0000

          k =-0.5007-0.9052-0.0852 (   868 PWs)   bands (ev):

   -16.2253 -16.2245 -13.1393 -13.1391  -3.5642  -3.5641  -2.0149  -2.0144
    -1.2140  -1.2138   0.6408   0.6411   2.1035   2.1036   3.6949   3.6955

     occupation numbers 
     1.0000   1.0000   1.0000   1.0000   1.0000   1.0000   1.0000   1.0000
     1.0000   1.0000   1.0000   1.0000   0.0000   0.0000   0.0000   0.0000

          k =-0.5050-0.9052-0.8578 (   868 PWs)   bands (ev):

   -16.2614 -16.2606 -13.0645 -13.0643  -3.5615  -3.5614  -2.3393  -2.3387
    -1.0060  -1.0058   0.7309   0.7312   1.9916   1.9916   3.8305   3.8311

     occupation numbers 
     1.0000   1.0000   1.0000   1.0000   1.0000   1.0000   1.0000   1.0000
     1.0000   1.0000   1.0000   1.0000   0.0001   0.0001   0.0000   0.0000

     the Fermi energy is     1.6409 ev

!    total energy              =    -127.17518413 Ry
     Harris-Foulkes estimate   =    -127.17518402 Ry
     estimated scf accuracy    <       0.00000020 Ry

     The total energy is the sum of the following terms:

     one-electron contribution =     -33.19892061 Ry
     hartree contribution      =      28.61044706 Ry
     xc contribution           =     -26.29322432 Ry
     ewald contribution        =     -96.29071120 Ry
     smearing contrib. (-TS)   =      -0.00277506 Ry

     convergence has been achieved in  10 iterations

     Forces acting on atoms (cartesian axes, Ry/au):

     atom    1 type  1   force =     0.02567857    0.00000000   -0.25133448
     atom    2 type  1   force =     0.02567820    0.00000000   -0.25137722
     atom    3 type  1   force =    -0.02567820    0.00000000    0.25137722
     atom    4 type  1   force =    -0.02567857    0.00000000    0.25133448
     The non-local contrib.  to forces
     atom    1 type  1   force =     0.12794333    0.00000000   -1.30703144
     atom    2 type  1   force =     0.12795271    0.00000000   -1.30732084
     atom    3 type  1   force =    -0.12795271    0.00000000    1.30732084
     atom    4 type  1   force =    -0.12794333    0.00000000    1.30703144
     The ionic contribution  to forces
     atom    1 type  1   force =    -0.12850446    0.00000000    4.88714321
     atom    2 type  1   force =    -0.12864001    0.00000000    4.88795867
     atom    3 type  1   force =     0.12864001   -0.00000000   -4.88795867
     atom    4 type  1   force =     0.12850446   -0.00000000   -4.88714321
     The local contribution  to forces
     atom    1 type  1   force =     0.02624264    0.00000000   -3.83214572
     atom    2 type  1   force =     0.02636999    0.00000000   -3.83272096
     atom    3 type  1   force =    -0.02636999    0.00000000    3.83272096
     atom    4 type  1   force =    -0.02624264    0.00000000    3.83214572
     The core correction contribution to forces
     atom    1 type  1   force =     0.00000000    0.00000000    0.00000000
     atom    2 type  1   force =     0.00000000    0.00000000    0.00000000
     atom    3 type  1   force =     0.00000000    0.00000000    0.00000000
     atom    4 type  1   force =     0.00000000    0.00000000    0.00000000
     The Hubbard contrib.    to forces
     atom    1 type  1   force =     0.00000000    0.00000000    0.00000000
     atom    2 type  1   force =     0.00000000    0.00000000    0.00000000
     atom    3 type  1   force =     0.00000000    0.00000000    0.00000000
     atom    4 type  1   force =     0.00000000    0.00000000    0.00000000
     The SCF correction term to forces
     atom    1 type  1   force =    -0.00000295   -0.00000000    0.00069947
     atom    2 type  1   force =    -0.00000449   -0.00000000    0.00070590
     atom    3 type  1   force =     0.00000449   -0.00000000   -0.00070590
     atom    4 type  1   force =     0.00000295   -0.00000000   -0.00069947

     Total force =     0.505328     Total SCF correction =     0.001405


     Computing stress (Cartesian axis) and pressure

          total   stress  (Ry/bohr**3)                   (kbar)     P= -261.19
   0.00032116   0.00000000   0.00057000         47.24      0.00     83.85
   0.00000000   0.00023433   0.00000000          0.00     34.47      0.00
   0.00057000   0.00000000  -0.00588215         83.85      0.00   -865.29

     kinetic stress (kbar)  18679.26      0.00    312.14
                                0.00  18428.01      0.00
                              312.14      0.00  15796.89

     local   stress (kbar) -13283.33      0.00    547.22
                                0.00 -14360.00     -0.00
                              547.22     -0.00 -10434.05

     nonloc. stress (kbar)  11068.23      0.00    119.18
                                0.00  10965.64      0.00
                              119.18      0.00   9990.41

     hartree stress (kbar)   5265.55     -0.00   -241.00
                               -0.00   5718.71     -0.00
                             -241.00     -0.00   3739.68

     exc-cor stress (kbar)  -4273.05      0.00     -2.06
                                0.00  -4270.46      0.00
                               -2.06      0.00  -4260.49

     corecor stress (kbar)      0.00      0.00      0.00
                                0.00      0.00      0.00
                                0.00      0.00      0.00

     ewald   stress (kbar) -17409.41     -0.00   -651.62
                               -0.00 -16447.44      0.00
                             -651.62      0.00 -15697.73

     hubbard stress (kbar)      0.00      0.00      0.00
                                0.00      0.00      0.00
                                0.00      0.00      0.00

     london  stress (kbar)      0.00      0.00      0.00
                                0.00      0.00      0.00
                                0.00      0.00      0.00

     DFT-D3  stress (kbar)      0.00      0.00      0.00
                                0.00      0.00      0.00
                                0.00      0.00      0.00

     XDM     stress (kbar)      0.00      0.00      0.00
                                0.00      0.00      0.00
                                0.00      0.00      0.00

     dft-nl  stress (kbar)      0.00      0.00      0.00
                                0.00      0.00      0.00
                                0.00      0.00      0.00

     TS-vdW  stress (kbar)      0.00      0.00      0.00
                                0.00      0.00      0.00
                                0.00      0.00      0.00



     number of scf cycles    =   2
     number of bfgs steps    =   1

     enthalpy old            =    -127.4236542424 Ry
     enthalpy new            =    -127.0197341565 Ry

     CASE: enthalpy_new > enthalpy_old

     new trust radius        =       0.1739711528 bohr
     new conv_thr            =       0.0000010000 Ry

     new unit-cell volume =    261.98454 a.u.^3 (    38.82210 Ang^3 )
     density =      2.73737 g/cm^3

CELL_PARAMETERS (alat=  8.10979371)
   0.999793870   0.000000000  -0.002055381
   0.000000000   0.553428371   0.000000000
  -0.662405176   0.000000000   0.889078386

ATOMIC_POSITIONS (crystal)
O        0.102410407   0.000000000   0.174173176
O        0.602407983   0.500000000   0.174168193
O        0.397592017   0.500000000   0.825831807
O        0.897589593   0.000000000   0.825826824



     Writing output data file O2alpha.save/
     NEW-OLD atomic charge density approx. for the potential
     extrapolated charge   21.81432, renormalised to   24.00000

     total cpu time spent up to now is       11.2 secs

     Self-consistent Calculation

     iteration #  1     ecut=    35.00 Ry     beta= 0.40
     Davidson diagonalization with overlap
     ethr =  1.00E-06,  avg # of iterations =  5.0

     total cpu time spent up to now is       12.1 secs

     total energy              =    -127.28954856 Ry
     Harris-Foulkes estimate   =    -130.80774733 Ry
     estimated scf accuracy    <       0.45863535 Ry

     iteration #  2     ecut=    35.00 Ry     beta= 0.40
     Davidson diagonalization with overlap
     ethr =  1.91E-03,  avg # of iterations =  3.0

     total cpu time spent up to now is       12.7 secs

     total energy              =    -127.62856620 Ry
     Harris-Foulkes estimate   =    -127.69853394 Ry
     estimated scf accuracy    <       0.19585203 Ry

     iteration #  3     ecut=    35.00 Ry     beta= 0.40
     Davidson diagonalization with overlap
     ethr =  8.16E-04,  avg # of iterations =  1.0

     total cpu time spent up to now is       13.1 secs

     total energy              =    -127.60558434 Ry
     Harris-Foulkes estimate   =    -127.63816952 Ry
     estimated scf accuracy    <       0.05139129 Ry

     iteration #  4     ecut=    35.00 Ry     beta= 0.40
     Davidson diagonalization with overlap
     ethr =  2.14E-04,  avg # of iterations =  2.0

     total cpu time spent up to now is       13.5 secs

     total energy              =    -127.62058438 Ry
     Harris-Foulkes estimate   =    -127.62159026 Ry
     estimated scf accuracy    <       0.00217563 Ry

     iteration #  5     ecut=    35.00 Ry     beta= 0.40
     Davidson diagonalization with overlap
     ethr =  9.07E-06,  avg # of iterations =  2.0

     total cpu time spent up to now is       14.0 secs

     total energy              =    -127.62103962 Ry
     Harris-Foulkes estimate   =    -127.62108546 Ry
     estimated scf accuracy    <       0.00115187 Ry

     iteration #  6     ecut=    35.00 Ry     beta= 0.40
     Davidson diagonalization with overlap
     ethr =  4.80E-06,  avg # of iterations =  2.0

     total cpu time spent up to now is       14.4 secs

     total energy              =    -127.62103094 Ry
     Harris-Foulkes estimate   =    -127.62128601 Ry
     estimated scf accuracy    <       0.00060042 Ry

     iteration #  7     ecut=    35.00 Ry     beta= 0.40
     Davidson diagonalization with overlap
     ethr =  2.50E-06,  avg # of iterations =  2.0

     total cpu time spent up to now is       14.8 secs

     total energy              =    -127.62114694 Ry
     Harris-Foulkes estimate   =    -127.62114234 Ry
     estimated scf accuracy    <       0.00000423 Ry

     iteration #  8     ecut=    35.00 Ry     beta= 0.40
     Davidson diagonalization with overlap
     ethr =  1.76E-08,  avg # of iterations =  2.3

     total cpu time spent up to now is       15.3 secs

     total energy              =    -127.62114904 Ry
     Harris-Foulkes estimate   =    -127.62114798 Ry
     estimated scf accuracy    <       0.00000156 Ry

     iteration #  9     ecut=    35.00 Ry     beta= 0.40
     Davidson diagonalization with overlap
     ethr =  6.51E-09,  avg # of iterations =  2.0

     total cpu time spent up to now is       15.8 secs

     End of self-consistent calculation

          k = 0.0000 0.0000 0.0000 (   863 PWs)   bands (ev):

   -21.6093 -20.1687 -11.7267 -10.7208  -4.7672  -4.4205  -2.2700  -0.2437
     0.4692   0.7142   0.8799   4.6321   4.9025   5.1199   9.9247  11.1729

     occupation numbers 
     1.0000   1.0000   1.0000   1.0000   1.0000   1.0000   1.0000   1.0000
     1.0000   1.0000   1.0000   0.0000   0.0000   0.0000   0.0000   0.0000

          k = 0.0006 0.0000 0.2816 (   866 PWs)   bands (ev):

   -21.5577 -20.1869 -12.1723 -10.5420  -4.5721  -3.8547  -2.6738  -0.1938
     0.4535   0.6884   1.1737   4.5344   4.9261   5.1686   9.5293  10.6067

     occupation numbers 
     1.0000   1.0000   1.0000   1.0000   1.0000   1.0000   1.0000   1.0000
     1.0000   1.0000   1.0000   0.0000   0.0000   0.0000   0.0000   0.0000

          k =-0.0012 0.0000-0.5632 (   886 PWs)   bands (ev):

   -21.5045 -20.2052 -12.5597 -10.3515  -4.6745  -3.1439  -2.9038  -0.1427
     0.4356   0.6624   1.5240   4.4342   4.9529   5.2171   8.0944  11.2413

     occupation numbers 
     1.0000   1.0000   1.0000   1.0000   1.0000   1.0000   1.0000   1.0000
     1.0000   1.0000   1.0000   0.0000   0.0000   0.0000   0.0000   0.0000

          k = 0.0000 0.3012 0.0000 (   859 PWs)   bands (ev):

   -21.3361 -20.0477 -11.4490 -10.5376  -4.5565  -4.0313  -2.2495  -1.3646
    -0.3392   0.2779   1.2331   3.8236   4.3078   4.7667  10.1298  11.2156

     occupation numbers 
     1.0000   1.0000   1.0000   1.0000   1.0000   1.0000   1.0000   1.0000
     1.0000   1.0000   1.0000   0.0487   0.0000   0.0000   0.0000   0.0000

          k = 0.0006 0.3012 0.2816 (   869 PWs)   bands (ev):

   -21.2890 -20.0627 -11.8613 -10.3879  -4.1764  -3.7152  -2.6018  -1.2827
    -0.3799   0.2587   1.5019   3.7166   4.3493   4.8000   9.7359  10.6880

     occupation numbers 
     1.0000   1.0000   1.0000   1.0000   1.0000   1.0000   1.0000   1.0000
     1.0000   1.0000   1.0000   0.2931   0.0000   0.0000   0.0000   0.0000

          k =-0.0012 0.3012-0.5632 (   870 PWs)   bands (ev):

   -21.2402 -20.0776 -12.2225 -10.2298  -4.2693  -3.0182  -2.8424  -1.1946
    -0.4161   0.2368   1.8225   3.5871   4.3589   4.8349   8.4800  11.2255

     occupation numbers 
     1.0000   1.0000   1.0000   1.0000   1.0000   1.0000   1.0000   1.0000
     1.0000   1.0000   1.0000   0.7887   0.0000   0.0000   0.0000   0.0000

          k = 0.0000 0.6023 0.0000 (   858 PWs)   bands (ev):

   -20.6684 -19.8688 -10.7767 -10.1917  -4.1843  -3.2772  -2.9766  -2.2752
    -2.0561  -0.4000   2.1613   2.3526   2.7135   4.2650  10.6054  11.2381

     occupation numbers 
     1.0000   1.0000   1.0000   1.0000   1.0000   1.0000   1.0000   1.0000
     1.0000   1.0000   1.0000   1.0000   1.0000   0.0000   0.0000   0.0000

          k = 0.0006 0.6023 0.2816 (   868 PWs)   bands (ev):

   -20.6342 -19.8728 -11.0836 -10.1428  -3.5966  -3.2253  -3.0908  -2.3901
    -2.0823  -0.4296   2.2086   2.4148   2.7319   4.3311  10.2228  10.7996

     occupation numbers 
     1.0000   1.0000   1.0000   1.0000   1.0000   1.0000   1.0000   1.0000
     1.0000   1.0000   1.0000   1.0000   1.0000   0.0000   0.0000   0.0000

          k =-0.0012 0.6023-0.5632 (   864 PWs)   bands (ev):

   -20.5989 -19.8764 -11.3595 -10.0924  -3.2507  -3.1669  -3.0694  -2.4414
    -2.0082  -0.4686   2.0933   2.6084   2.6835   4.4003   9.3987  11.0333

     occupation numbers 
     1.0000   1.0000   1.0000   1.0000   1.0000   1.0000   1.0000   1.0000
     1.0000   1.0000   1.0000   1.0000   1.0000   0.0000   0.0000   0.0000

          k = 0.0000-0.9035 0.0000 (   868 PWs)   bands (ev):

   -20.0405 -20.0395 -10.1997 -10.1997  -4.1598  -4.1596  -2.4614  -2.4613
    -1.6016  -1.6010   1.7909   1.7910   3.3196   3.3197  11.0492  11.0498

     occupation numbers 
     1.0000   1.0000   1.0000   1.0000   1.0000   1.0000   1.0000   1.0000
     1.0000   1.0000   1.0000   1.0000   0.9998   0.9998   0.0000   0.0000

          k = 0.0006-0.9035 0.2816 (   878 PWs)   bands (ev):

   -20.0259 -20.0249 -10.3295 -10.3295  -3.9500  -3.9497  -2.4626  -2.4623
    -1.6408  -1.6403   1.7523   1.7524   3.4521   3.4521  10.6686  10.6692

     occupation numbers 
     1.0000   1.0000   1.0000   1.0000   1.0000   1.0000   1.0000   1.0000
     1.0000   1.0000   1.0000   1.0000   0.9863   0.9862   0.0000   0.0000

          k =-0.0012-0.9035-0.5632 (   880 PWs)   bands (ev):

   -20.0106 -20.0096 -10.4520 -10.4520  -3.8252  -3.8249  -2.2913  -2.2910
    -1.7241  -1.7235   1.6304   1.6305   3.5908   3.5909  10.4038  10.4044

     occupation numbers 
     1.0000   1.0000   1.0000   1.0000   1.0000   1.0000   1.0000   1.0000
     1.0000   1.0000   1.0000   1.0000   0.7772   0.7768   0.0000   0.0000

          k = 0.2504 0.0000 0.1866 (   863 PWs)   bands (ev):

   -21.4065 -20.3897 -11.7478 -11.0434  -4.2455  -3.9204  -2.3221  -0.3296
    -0.0991   0.5784   1.6376   4.4429   4.6767   5.0201   9.7338  10.5141

     occupation numbers 
     1.0000   1.0000   1.0000   1.0000   1.0000   1.0000   1.0000   1.0000
     1.0000   1.0000   1.0000   0.0000   0.0000   0.0000   0.0000   0.0000

          k = 0.2510 0.0000 0.4682 (   872 PWs)   bands (ev):

   -21.3382 -20.4240 -12.2832 -10.7336  -4.1814  -3.0235  -2.9177  -0.3440
    -0.0321   0.5359   2.0142   4.4195   4.5467   5.1000   8.5759  10.7967

     occupation numbers 
     1.0000   1.0000   1.0000   1.0000   1.0000   1.0000   1.0000   1.0000
     1.0000   1.0000   1.0000   0.0000   0.0000   0.0000   0.0000   0.0000

          k = 0.2493 0.0000-0.3767 (   866 PWs)   bands (ev):

   -21.3546 -20.4418 -12.1735 -10.5848  -4.3537  -3.2661  -2.9046  -0.3013
    -0.0450   0.5232   1.8213   4.3041   4.5708   5.1244   8.9012  11.1848

     occupation numbers 
     1.0000   1.0000   1.0000   1.0000   1.0000   1.0000   1.0000   1.0000
     1.0000   1.0000   1.0000   0.0000   0.0000   0.0000   0.0000   0.0000

          k = 0.2499 0.0000-0.0950 (   855 PWs)   bands (ev):

   -21.4221 -20.4080 -11.6163 -10.9117  -4.4820  -3.9813  -2.4385  -0.2829
    -0.1116   0.5652   1.4912   4.3284   4.6999   5.0444  10.0176  10.8861

     occupation numbers 
     1.0000   1.0000   1.0000   1.0000   1.0000   1.0000   1.0000   1.0000
     1.0000   1.0000   1.0000   0.0000   0.0000   0.0000   0.0000   0.0000

          k = 0.2504 0.3012 0.1866 (   863 PWs)   bands (ev):

   -21.1509 -20.2405 -11.4713 -10.8313  -4.0939  -3.6906  -2.2692  -1.0962
    -0.9211   0.1164   1.8208   3.8474   3.9591   4.7378   9.9415  10.6181

     occupation numbers 
     1.0000   1.0000   1.0000   1.0000   1.0000   1.0000   1.0000   1.0000
     1.0000   1.0000   1.0000   0.0284   0.0011   0.0000   0.0000   0.0000

          k = 0.2510 0.3012 0.4682 (   872 PWs)   bands (ev):

   -21.0887 -20.2698 -11.9661 -10.5634  -3.9597  -2.9801  -2.7555  -1.0009
    -0.9747   0.0926   2.1499   3.8231   3.8636   4.7765   8.8942  10.8447

     occupation numbers 
     1.0000   1.0000   1.0000   1.0000   1.0000   1.0000   1.0000   1.0000
     1.0000   1.0000   1.0000   0.0493   0.0191   0.0000   0.0000   0.0000

          k = 0.2493 0.3012-0.3767 (   861 PWs)   bands (ev):

   -21.1042 -20.2860 -11.8619 -10.4274  -4.1437  -3.1905  -2.7175  -1.0147
    -1.0086   0.1326   2.0105   3.8241   3.8711   4.7096   9.1841  11.1857

     occupation numbers 
     1.0000   1.0000   1.0000   1.0000   1.0000   1.0000   1.0000   1.0000
     1.0000   1.0000   1.0000   0.0482   0.0158   0.0000   0.0000   0.0000

          k = 0.2499 0.3012-0.0950 (   862 PWs)   bands (ev):

   -21.1655 -20.2575 -11.3480 -10.7091  -4.3053  -3.7733  -2.3570  -1.1022
    -0.9485   0.1552   1.7219   3.8617   3.9631   4.6632  10.1921  10.9483

     occupation numbers 
     1.0000   1.0000   1.0000   1.0000   1.0000   1.0000   1.0000   1.0000
     1.0000   1.0000   1.0000   0.0201   0.0009   0.0000   0.0000   0.0000

          k = 0.2504 0.6023 0.1866 (   869 PWs)   bands (ev):

   -20.5424 -19.9758 -10.8139 -10.3999  -4.0039  -3.8206  -2.3106  -2.3088
    -1.8866  -0.3119   1.6909   2.2778   3.3051   4.4393  10.4092  10.8021

     occupation numbers 
     1.0000   1.0000   1.0000   1.0000   1.0000   1.0000   1.0000   1.0000
     1.0000   1.0000   1.0000   1.0000   0.9999   0.0000   0.0000   0.0000

          k = 0.2510 0.6023 0.4682 (   862 PWs)   bands (ev):

   -20.4988 -19.9882 -11.1750 -10.2755  -3.9319  -3.4112  -2.4611  -2.1961
    -1.9372  -0.3369   1.7206   2.2995   3.3804   4.4861   9.6629  10.8335

     occupation numbers 
     1.0000   1.0000   1.0000   1.0000   1.0000   1.0000   1.0000   1.0000
     1.0000   1.0000   1.0000   1.0000   0.9984   0.0000   0.0000   0.0000

          k = 0.2493 0.6023-0.3767 (   864 PWs)   bands (ev):

   -20.5116 -20.0013 -11.0850 -10.1708  -4.0504  -3.4747  -2.5689  -2.3656
    -1.8451  -0.2776   1.7986   2.3934   3.2275   4.3752   9.8781  11.0704

     occupation numbers 
     1.0000   1.0000   1.0000   1.0000   1.0000   1.0000   1.0000   1.0000
     1.0000   1.0000   1.0000   1.0000   1.0000   0.0000   0.0000   0.0000

          k = 0.2499 0.6023-0.0950 (   870 PWs)   bands (ev):

   -20.5546 -19.9891 -10.7117 -10.3009  -4.1092  -3.8784  -2.5309  -2.4436
    -1.7594  -0.2517   1.8044   2.3813   3.1540   4.3272  10.5897  11.0320

     occupation numbers 
     1.0000   1.0000   1.0000   1.0000   1.0000   1.0000   1.0000   1.0000
     1.0000   1.0000   1.0000   1.0000   1.0000   0.0000   0.0000   0.0000

          k = 0.2504-0.9035 0.1866 (   874 PWs)   bands (ev):

   -20.0222 -20.0212 -10.2988 -10.2988  -4.3742  -4.3740  -2.4662  -2.4659
    -1.0700  -1.0696   1.3357   1.3358   3.8829   3.8830  10.7777  10.7783

     occupation numbers 
     1.0000   1.0000   1.0000   1.0000   1.0000   1.0000   1.0000   1.0000
     1.0000   1.0000   1.0000   1.0000   0.0115   0.0115   0.0000   0.0000

          k = 0.2510-0.9035 0.4682 (   862 PWs)   bands (ev):

   -20.0071 -20.0061 -10.4234 -10.4234  -4.2466  -4.2464  -2.3676  -2.3672
    -1.1167  -1.1163   1.3145   1.3146   3.9788   3.9789  10.4481  10.4487

     occupation numbers 
     1.0000   1.0000   1.0000   1.0000   1.0000   1.0000   1.0000   1.0000
     1.0000   1.0000   1.0000   1.0000   0.0005   0.0005   0.0000   0.0000

          k = 0.2493-0.9035-0.3767 (   866 PWs)   bands (ev):

   -20.0184 -20.0173 -10.3405 -10.3405  -4.2933  -4.2931  -2.5372  -2.5368
    -1.0328  -1.0324   1.4214   1.4216   3.8490   3.8491  10.6253  10.6259

     occupation numbers 
     1.0000   1.0000   1.0000   1.0000   1.0000   1.0000   1.0000   1.0000
     1.0000   1.0000   1.0000   1.0000   0.0274   0.0273   0.0000   0.0000

          k = 0.2499-0.9035-0.0950 (   864 PWs)   bands (ev):

   -20.0332 -20.0322 -10.2127 -10.2127  -4.4063  -4.4061  -2.6689  -2.6685
    -0.9836  -0.9832   1.4740   1.4741   3.7477   3.7478  10.9343  10.9349

     occupation numbers 
     1.0000   1.0000   1.0000   1.0000   1.0000   1.0000   1.0000   1.0000
     1.0000   1.0000   1.0000   1.0000   0.1928   0.1926   0.0000   0.0000

          k =-0.5009 0.0000-0.3732 (   862 PWs)   bands (ev):

[...]
     1.0000   1.0000   1.0000   1.0000   0.7654   0.7643   0.0000   0.0000

          k = 0.2464 0.0000 0.1891 (   871 PWs)   bands (ev):

   -23.0479 -22.1703 -10.4811  -9.8464  -4.4098  -4.2554  -2.0655  -0.8392
    -0.6524   0.0110   2.7091   5.6536   5.8692   6.1910  13.2507  14.0221

     occupation numbers 
     1.0000   1.0000   1.0000   1.0000   1.0000   1.0000   1.0000   1.0000
     1.0000   1.0000   1.0000   0.0000   0.0000   0.0000   0.0000   0.0000

          k = 0.2396 0.0000 0.4833 (   875 PWs)   bands (ev):

   -22.9944 -22.1998 -11.1591  -9.4322  -4.6089  -2.9449  -2.7796  -0.8121
    -0.5819  -0.0370   3.0951   5.6051   5.7050   6.2994  11.6741  14.3541

     occupation numbers 
     1.0000   1.0000   1.0000   1.0000   1.0000   1.0000   1.0000   1.0000
     1.0000   1.0000   1.0000   0.0000   0.0000   0.0000   0.0000   0.0000

          k = 0.2600 0.0000-0.3992 (   871 PWs)   bands (ev):

   -23.0043 -22.2106 -11.0491  -9.2536  -4.7993  -3.1917  -2.7984  -0.7591
    -0.5921  -0.0481   2.9420   5.5195   5.7300   6.3253  12.0540  15.1647

     occupation numbers 
     1.0000   1.0000   1.0000   1.0000   1.0000   1.0000   1.0000   1.0000
     1.0000   1.0000   1.0000   0.0000   0.0000   0.0000   0.0000   0.0000

          k = 0.2532 0.0000-0.1051 (   868 PWs)   bands (ev):

   -23.0574 -22.1812 -10.3347  -9.7020  -4.5141  -4.4997  -2.1835  -0.7850
    -0.6627  -0.0000   2.6060   5.5545   5.8928   6.2177  13.6754  14.6892

     occupation numbers 
     1.0000   1.0000   1.0000   1.0000   1.0000   1.0000   1.0000   1.0000
     1.0000   1.0000   1.0000   0.0000   0.0000   0.0000   0.0000   0.0000

          k = 0.2464 0.3025 0.1891 (   868 PWs)   bands (ev):

   -22.8193 -22.0376 -10.1995  -9.6211  -4.1822  -4.1689  -2.0680  -1.5611
    -1.3036  -0.4601   2.8902   4.9906   5.1472   5.9572  13.5052  14.1712

     occupation numbers 
     1.0000   1.0000   1.0000   1.0000   1.0000   1.0000   1.0000   1.0000
     1.0000   1.0000   1.0000   0.0413   0.0004   0.0000   0.0000   0.0000

          k = 0.2396 0.3025 0.4833 (   872 PWs)   bands (ev):

   -22.7710 -22.0628 -10.8266  -9.2610  -4.3856  -3.0302  -2.6616  -1.4686
    -1.2753  -0.4810   3.2236   4.9808   5.0250   5.9960  12.0521  14.4599

     occupation numbers 
     1.0000   1.0000   1.0000   1.0000   1.0000   1.0000   1.0000   1.0000
     1.0000   1.0000   1.0000   0.0510   0.0181   0.0000   0.0000   0.0000

          k = 0.2600 0.3025-0.3992 (   868 PWs)   bands (ev):

   -22.7802 -22.0728 -10.7204  -9.0967  -4.5835  -3.2357  -2.6420  -1.5027
    -1.3129  -0.4413   3.1398   4.9689   5.0836   5.9081  12.4018  15.1610

     occupation numbers 
     1.0000   1.0000   1.0000   1.0000   1.0000   1.0000   1.0000   1.0000
     1.0000   1.0000   1.0000   0.0654   0.0034   0.0000   0.0000   0.0000

          k = 0.2532 0.3025-0.1051 (   865 PWs)   bands (ev):

   -22.8284 -22.0477 -10.0605  -9.4850  -4.4008  -4.2861  -2.1302  -1.6076
    -1.3240  -0.4229   2.8469   5.0447   5.1416   5.8621  13.8874  14.7752

     occupation numbers 
     1.0000   1.0000   1.0000   1.0000   1.0000   1.0000   1.0000   1.0000
     1.0000   1.0000   1.0000   0.0108   0.0005   0.0000   0.0000   0.0000

          k = 0.2464 0.6049 0.1891 (   868 PWs)   bands (ev):

   -22.2828 -21.8023  -9.5317  -9.1541  -4.3723  -4.2982  -2.4703  -2.2910
    -1.9851  -0.8824   2.7659   3.3734   4.4802   5.6570  14.0886  14.4717

     occupation numbers 
     1.0000   1.0000   1.0000   1.0000   1.0000   1.0000   1.0000   1.0000
     1.0000   1.0000   1.0000   1.0000   0.9998   0.0000   0.0000   0.0000

          k = 0.2396 0.6049 0.4833 (   866 PWs)   bands (ev):

   -22.2500 -21.8138  -9.9896  -8.9812  -4.3860  -3.9000  -2.4664  -2.2316
    -1.9888  -0.9017   2.7786   3.4286   4.5553   5.7038  13.0076  14.5270

     occupation numbers 
     1.0000   1.0000   1.0000   1.0000   1.0000   1.0000   1.0000   1.0000
     1.0000   1.0000   1.0000   1.0000   0.9973   0.0000   0.0000   0.0000

          k = 0.2600 0.6049-0.3992 (   879 PWs)   bands (ev):

   -22.2579 -21.8220  -9.8921  -8.8526  -4.5211  -3.9764  -2.5214  -2.2360
    -2.1654  -0.8453   2.9413   3.5821   4.3658   5.5678  13.2938  14.9792

     occupation numbers 
     1.0000   1.0000   1.0000   1.0000   1.0000   1.0000   1.0000   1.0000
     1.0000   1.0000   1.0000   1.0000   1.0000   0.0000   0.0000   0.0000

          k = 0.2532 0.6049-0.1051 (   873 PWs)   bands (ev):

   -22.2905 -21.8103  -9.4115  -9.0383  -4.4909  -4.3782  -2.5706  -2.4395
    -2.0086  -0.8248   2.9745   3.5276   4.2821   5.5210  14.3764  14.8987

     occupation numbers 
     1.0000   1.0000   1.0000   1.0000   1.0000   1.0000   1.0000   1.0000
     1.0000   1.0000   1.0000   1.0000   1.0000   0.0000   0.0000   0.0000

          k = 0.2464-0.9074 0.1891 (   870 PWs)   bands (ev):

   -21.8405 -21.8302  -9.0203  -9.0198  -4.8379  -4.8347  -2.2730  -2.2700
    -1.5991  -1.5955   2.4078   2.4082   5.0732   5.0734  14.5228  14.5324

     occupation numbers 
     1.0000   1.0000   1.0000   1.0000   1.0000   1.0000   1.0000   1.0000
     1.0000   1.0000   1.0000   1.0000   0.0047   0.0047   0.0000   0.0000

          k = 0.2396-0.9074 0.4833 (   882 PWs)   bands (ev):

   -21.8306 -21.8202  -9.1730  -9.1725  -4.7240  -4.7204  -2.1363  -2.1331
    -1.6453  -1.6416   2.3947   2.3952   5.1763   5.1765  14.0368  14.0460

     occupation numbers 
     1.0000   1.0000   1.0000   1.0000   1.0000   1.0000   1.0000   1.0000
     1.0000   1.0000   1.0000   1.0000   0.0001   0.0001   0.0000   0.0000

          k = 0.2600-0.9074-0.3992 (   860 PWs)   bands (ev):

   -21.8373 -21.8270  -9.0737  -9.0732  -4.7872  -4.7838  -2.3488  -2.3457
    -1.5535  -1.5498   2.5794   2.5799   5.0181   5.0184  14.3201  14.3294

     occupation numbers 
     1.0000   1.0000   1.0000   1.0000   1.0000   1.0000   1.0000   1.0000
     1.0000   1.0000   1.0000   1.0000   0.0216   0.0214   0.0000   0.0000

          k = 0.2532-0.9074-0.1051 (   870 PWs)   bands (ev):

   -21.8473 -21.8370  -8.9147  -8.9142  -4.8930  -4.8898  -2.5132  -2.5104
    -1.5046  -1.5010   2.6212   2.6216   4.9046   4.9049  14.7939  14.8038

     occupation numbers 
     1.0000   1.0000   1.0000   1.0000   1.0000   1.0000   1.0000   1.0000
     1.0000   1.0000   1.0000   1.0000   0.1998   0.1989   0.0000   0.0000

          k =-0.4929 0.0000-0.3782 (   868 PWs)   bands (ev):

   -22.6214 -22.6116 -10.3559 -10.3553  -3.5721  -3.5718  -2.0804  -2.0783
    -0.3202  -0.3142   4.3163   4.3167   5.9997   6.0002  12.9914  12.9991

     occupation numbers 
     1.0000   1.0000   1.0000   1.0000   1.0000   1.0000   1.0000   1.0000
     1.0000   1.0000   1.0000   1.0000   0.0000   0.0000   0.0000   0.0000

          k =-0.4997 0.0000-0.0841 (   867 PWs)   bands (ev):

   -22.6568 -22.5962 -10.5966  -9.7736  -4.4617  -3.2956  -2.2082  -1.7635
    -0.3697  -0.2851   4.0713   4.3444   5.9280   6.1213  12.2655  15.0741

     occupation numbers 
     1.0000   1.0000   1.0000   1.0000   1.0000   1.0000   1.0000   1.0000
     1.0000   1.0000   1.0000   1.0000   0.0000   0.0000   0.0000   0.0000

          k =-0.4793 0.0000-0.9666 (   858 PWs)   bands (ev):

   -22.6418 -22.6320 -10.0779 -10.0774  -4.0575  -4.0563  -1.9927  -1.9892
    -0.3415  -0.3356   4.0996   4.1001   6.0498   6.0502  13.9833  13.9921

     occupation numbers 
     1.0000   1.0000   1.0000   1.0000   1.0000   1.0000   1.0000   1.0000
     1.0000   1.0000   1.0000   1.0000   0.0000   0.0000   0.0000   0.0000

          k =-0.4929 0.3025-0.3782 (   868 PWs)   bands (ev):

   -22.4370 -22.4271 -10.0887 -10.0881  -3.6518  -3.6511  -2.0286  -2.0277
    -1.0089  -1.0050   4.0527   4.0529   5.5505   5.5508  13.2313  13.2393

     occupation numbers 
     1.0000   1.0000   1.0000   1.0000   1.0000   1.0000   1.0000   1.0000
     1.0000   1.0000   1.0000   1.0000   0.0000   0.0000   0.0000   0.0000

          k =-0.4997 0.3025-0.0841 (   867 PWs)   bands (ev):

   -22.4680 -22.4146 -10.3019  -9.5585  -4.4028  -3.4229  -2.1920  -1.7800
    -1.0363  -0.9686   3.9436   4.0978   5.4534   5.5773  12.6217  15.1149

     occupation numbers 
     1.0000   1.0000   1.0000   1.0000   1.0000   1.0000   1.0000   1.0000
     1.0000   1.0000   1.0000   1.0000   0.0000   0.0000   0.0000   0.0000

          k =-0.4793 0.3025-0.9666 (   870 PWs)   bands (ev):

   -22.4560 -22.4462  -9.8251  -9.8246  -4.0531  -4.0518  -2.0519  -2.0506
    -0.9971  -0.9938   4.0125   4.0129   5.4830   5.4834  14.1298  14.1387

     occupation numbers 
     1.0000   1.0000   1.0000   1.0000   1.0000   1.0000   1.0000   1.0000
     1.0000   1.0000   1.0000   1.0000   0.0000   0.0000   0.0000   0.0000

          k =-0.4929 0.6049-0.3782 (   872 PWs)   bands (ev):

   -22.0414 -22.0313  -9.4858  -9.4852  -4.3919  -4.3895  -2.1665  -2.1635
    -1.3186  -1.3163   2.8421   2.8424   5.4225   5.4226  13.7661  13.7748

     occupation numbers 
     1.0000   1.0000   1.0000   1.0000   1.0000   1.0000   1.0000   1.0000
     1.0000   1.0000   1.0000   1.0000   0.0000   0.0000   0.0000   0.0000

          k =-0.4997 0.6049-0.0841 (   876 PWs)   bands (ev):

   -22.0607 -22.0276  -9.5968  -9.1217  -4.7050  -4.3492  -2.4646  -2.0797
    -1.2750  -1.2406   2.8815   2.9578   5.2852   5.3231  13.5224  15.0456

     occupation numbers 
     1.0000   1.0000   1.0000   1.0000   1.0000   1.0000   1.0000   1.0000
     1.0000   1.0000   1.0000   1.0000   0.0000   0.0000   0.0000   0.0000

          k =-0.4793 0.6049-0.9666 (   868 PWs)   bands (ev):

   -22.0570 -22.0468  -9.2576  -9.2571  -4.5562  -4.5539  -2.5139  -2.5111
    -1.2029  -1.2003   3.0955   3.0958   5.1788   5.1789  14.4388  14.4480

     occupation numbers 
     1.0000   1.0000   1.0000   1.0000   1.0000   1.0000   1.0000   1.0000
     1.0000   1.0000   1.0000   1.0000   0.0001   0.0001   0.0000   0.0000

          k =-0.4929-0.9074-0.3782 (   872 PWs)   bands (ev):

   -21.8282 -21.8178  -9.1385  -9.1380  -5.0035  -5.0005  -2.1808  -2.1778
    -1.2049  -1.2016   2.1111   2.1116   5.5092   5.5093  14.0712  14.0805

     occupation numbers 
     1.0000   1.0000   1.0000   1.0000   1.0000   1.0000   1.0000   1.0000
     1.0000   1.0000   1.0000   1.0000   0.0000   0.0000   0.0000   0.0000

          k =-0.4997-0.9074-0.0841 (   874 PWs)   bands (ev):

   -21.8348 -21.8245  -9.0340  -9.0335  -5.0955  -5.0927  -2.2951  -2.2922
    -1.1548  -1.1514   2.2004   2.2007   5.3856   5.3857  14.5018  14.5114

     occupation numbers 
     1.0000   1.0000   1.0000   1.0000   1.0000   1.0000   1.0000   1.0000
     1.0000   1.0000   1.0000   1.0000   0.0000   0.0000   0.0000   0.0000

          k =-0.4793-0.9074-0.9666 (   856 PWs)   bands (ev):

   -21.8418 -21.8315  -8.9335  -8.9330  -5.1070  -5.1041  -2.5630  -2.5602
    -1.1032  -1.0998   2.4266   2.4270   5.2626   5.2628  14.6023  14.6118

     occupation numbers 
     1.0000   1.0000   1.0000   1.0000   1.0000   1.0000   1.0000   1.0000
     1.0000   1.0000   1.0000   1.0000   0.0000   0.0000   0.0000   0.0000

     the Fermi energy is     4.8236 ev

!    total energy              =    -127.66955734 Ry
     Harris-Foulkes estimate   =    -127.66955712 Ry
     estimated scf accuracy    <          4.7E-09 Ry

     The total energy is the sum of the following terms:

     one-electron contribution =     -46.38855504 Ry
     hartree contribution      =      35.63167878 Ry
     xc contribution           =     -27.27926429 Ry
     ewald contribution        =     -89.63257385 Ry
     smearing contrib. (-TS)   =      -0.00084293 Ry

     convergence has been achieved in   9 iterations

     Forces acting on atoms (cartesian axes, Ry/au):

     atom    1 type  1   force =     0.00035123    0.00000000   -0.00053985
     atom    2 type  1   force =     0.00033119   -0.00000000    0.00024200
     atom    3 type  1   force =    -0.00033119   -0.00000000   -0.00024200
     atom    4 type  1   force =    -0.00035123    0.00000000    0.00053985
     The non-local contrib.  to forces
     atom    1 type  1   force =     0.07297487    0.00000000   -3.16919364
     atom    2 type  1   force =     0.07301354    0.00000000   -3.17069788
     atom    3 type  1   force =    -0.07301354    0.00000000    3.17069788
     atom    4 type  1   force =    -0.07297487    0.00000000    3.16919364
     The ionic contribution  to forces
     atom    1 type  1   force =    -0.26918460    0.00000000   12.52191543
     atom    2 type  1   force =    -0.26919308   -0.00000000   12.52977161
     atom    3 type  1   force =     0.26919308    0.00000000  -12.52977161
     atom    4 type  1   force =     0.26918460   -0.00000000  -12.52191543
     The local contribution  to forces
     atom    1 type  1   force =     0.19656392   -0.00000000   -9.35314379
     atom    2 type  1   force =     0.19650328    0.00000000   -9.35865032
     atom    3 type  1   force =    -0.19650328    0.00000000    9.35865032
     atom    4 type  1   force =    -0.19656392   -0.00000000    9.35314379
     The core correction contribution to forces
     atom    1 type  1   force =     0.00000000    0.00000000    0.00000000
     atom    2 type  1   force =     0.00000000    0.00000000    0.00000000
     atom    3 type  1   force =     0.00000000    0.00000000    0.00000000
     atom    4 type  1   force =     0.00000000    0.00000000    0.00000000
     The Hubbard contrib.    to forces
     atom    1 type  1   force =     0.00000000    0.00000000    0.00000000
     atom    2 type  1   force =     0.00000000    0.00000000    0.00000000
     atom    3 type  1   force =     0.00000000    0.00000000    0.00000000
     atom    4 type  1   force =     0.00000000    0.00000000    0.00000000
     The SCF correction term to forces
     atom    1 type  1   force =    -0.00000295    0.00000000   -0.00011785
     atom    2 type  1   force =     0.00000745    0.00000000   -0.00018140
     atom    3 type  1   force =    -0.00000745   -0.00000000    0.00018140
     atom    4 type  1   force =     0.00000295   -0.00000000    0.00011785

     Total force =     0.001080     Total SCF correction =     0.000306
     SCF correction compared to forces is large: reduce conv_thr to get better values


     Computing stress (Cartesian axis) and pressure

          total   stress  (Ry/bohr**3)                   (kbar)     P=   79.68
   0.00054628   0.00000000  -0.00001738         80.36      0.00     -2.56
   0.00000000   0.00054762   0.00000000          0.00     80.56      0.00
  -0.00001738   0.00000000   0.00053116         -2.56      0.00     78.14

     kinetic stress (kbar)  22219.59      0.00     68.67
                                0.00  22026.67      0.00
                               68.67      0.00  19204.96

     local   stress (kbar) -15796.98      0.00    242.53
                                0.00 -17755.72      0.00
                              242.53      0.00 -18835.97

     nonloc. stress (kbar)  12687.75      0.00     37.74
                                0.00  12599.87      0.00
                               37.74      0.00  11040.50

     hartree stress (kbar)   7648.44     -0.00     -4.12
                               -0.00   8419.36      0.00
                               -4.12      0.00   4985.54

     exc-cor stress (kbar)  -5107.43      0.00     -1.95
                                0.00  -5103.66     -0.00
                               -1.95     -0.00  -5033.55

     corecor stress (kbar)      0.00      0.00      0.00
                                0.00      0.00      0.00
                                0.00      0.00      0.00

     ewald   stress (kbar) -21571.01     -0.00   -345.43
                               -0.00 -20105.96     -0.00
                             -345.43     -0.00 -11283.34

     hubbard stress (kbar)      0.00      0.00      0.00
                                0.00      0.00      0.00
                                0.00      0.00      0.00

     london  stress (kbar)      0.00      0.00      0.00
                                0.00      0.00      0.00
                                0.00      0.00      0.00

     DFT-D3  stress (kbar)      0.00      0.00      0.00
                                0.00      0.00      0.00
                                0.00      0.00      0.00

     XDM     stress (kbar)      0.00      0.00      0.00
                                0.00      0.00      0.00
                                0.00      0.00      0.00

     dft-nl  stress (kbar)      0.00      0.00      0.00
                                0.00      0.00      0.00
                                0.00      0.00      0.00

     TS-vdW  stress (kbar)      0.00      0.00      0.00
                                0.00      0.00      0.00
                                0.00      0.00      0.00



     Writing output data file O2alpha.save/
 
     init_run     :      0.47s CPU      0.54s WALL (       2 calls)
     electrons    :     46.70s CPU     54.33s WALL (      14 calls)
     update_pot   :      1.31s CPU      1.37s WALL (      12 calls)
     forces       :      0.86s CPU      0.97s WALL (      14 calls)
     stress       :      1.96s CPU      2.03s WALL (      14 calls)

     Called by init_run:
     wfcinit      :      0.22s CPU      0.24s WALL (       2 calls)
     wfcinit:atom :      0.01s CPU      0.00s WALL (      80 calls)
     wfcinit:wfcr :      0.21s CPU      0.22s WALL (      80 calls)
     potinit      :      0.10s CPU      0.10s WALL (       2 calls)
     hinit0       :      0.13s CPU      0.15s WALL (       2 calls)

     Called by electrons:
     c_bands      :     39.35s CPU     45.47s WALL (     114 calls)
     sum_band     :      6.11s CPU      6.64s WALL (     114 calls)
     v_of_rho     :      0.81s CPU      0.84s WALL (     125 calls)
     v_h          :      0.05s CPU      0.04s WALL (     125 calls)
     v_xc         :      0.76s CPU      0.79s WALL (     125 calls)
     newd         :      0.33s CPU      0.37s WALL (     125 calls)
     mix_rho      :      0.05s CPU      0.10s WALL (     114 calls)

     Called by c_bands:
     init_us_2    :      0.50s CPU      0.56s WALL (   10320 calls)
     cegterg      :     38.07s CPU     41.49s WALL (    4560 calls)

     Called by sum_band:
     sum_band:bec :      0.06s CPU      0.05s WALL (    4560 calls)
     addusdens    :      0.41s CPU      0.33s WALL (     114 calls)

     Called by *egterg:
     h_psi        :     26.25s CPU     29.09s WALL (   14290 calls)
     s_psi        :      0.38s CPU      0.55s WALL (   14290 calls)
     g_psi        :      0.24s CPU      0.26s WALL (    9650 calls)
     cdiaghg      :      6.48s CPU      6.82s WALL (   13610 calls)
     cegterg:over :      2.09s CPU      2.11s WALL (    9650 calls)
     cegterg:upda :      0.44s CPU      0.51s WALL (    9650 calls)
     cegterg:last :      0.28s CPU      0.27s WALL (    4798 calls)

     Called by h_psi:
     h_psi:pot    :     26.11s CPU     28.98s WALL (   14290 calls)
     h_psi:calbec :      1.31s CPU      1.40s WALL (   14290 calls)
     vloc_psi     :     24.07s CPU     26.85s WALL (   14290 calls)
     add_vuspsi   :      0.64s CPU      0.60s WALL (   14290 calls)

     General routines
     calbec       :      1.92s CPU      2.08s WALL (   21650 calls)
     fft          :      0.57s CPU      0.58s WALL (    1724 calls)
     ffts         :      0.02s CPU      0.03s WALL (     239 calls)
     fftw         :     26.34s CPU     29.04s WALL (  466270 calls)
     interpolate  :      0.05s CPU      0.06s WALL (     125 calls)
 
     Parallel routines
     fft_scatt_xy :      2.91s CPU      3.04s WALL (  468233 calls)
     fft_scatt_yz :     12.76s CPU     14.31s WALL (  468233 calls)
 
     PWSCF        :     52.45s CPU   1m 2.75s WALL

 
   This run was terminated on:   9:28: 1   5Jan2021            

=------------------------------------------------------------------------------=
   JOB DONE.
=------------------------------------------------------------------------------=
