
     Program PWSCF v.6.4.1 starts on  5Jan2021 at  9:31:29 

     This program is part of the open-source Quantum ESPRESSO suite
     for quantum simulation of materials; please cite
         "P. Giannozzi et al., J. Phys.:Condens. Matter 21 395502 (2009);
         "P. Giannozzi et al., J. Phys.:Condens. Matter 29 465901 (2017);
          URL http://www.quantum-espresso.org", 
     in publications or presentations arising from this work. More details at
     http://www.quantum-espresso.org/quote

     Parallel version (MPI), running on     8 processors

     MPI processes distributed on     1 nodes
     R & G space division:  proc/nbgrp/npool/nimage =       8
     Waiting for input...
     Reading input from standard input

     Current dimensions of program PWSCF are:
     Max number of different atomic species (ntypx) = 10
     Max number of k-points (npk) =  40000
     Max angular momentum in pseudopotentials (lmaxx) =  3

     Subspace diagonalization in iterative solution of the eigenvalue problem:
     a serial algorithm will be used

     Found symmetry operation: I + ( -0.5000 -0.5000  0.0000)
     This is a supercell, fractional translations are disabled
 
     Parallelization info
     --------------------
     sticks:   dense  smooth     PW     G-vecs:    dense   smooth      PW
     Min         110      48     17                 2710      799     168
     Max         111      49     18                 2713      801     170
     Sum         881     385    137                21683     6401    1355
 


     bravais-lattice index     =          -12
     lattice parameter (alat)  =       7.9458  a.u.
     unit-cell volume          =     229.2171 (a.u.)^3
     number of atoms/cell      =            4
     number of atomic types    =            1
     number of electrons       =        24.00
     number of Kohn-Sham states=           16
     kinetic-energy cutoff     =      35.0000  Ry
     charge density cutoff     =     315.0000  Ry
     convergence threshold     =      1.0E-06
     mixing beta               =       0.4000
     number of iterations used =            8  plain     mixing
     Exchange-correlation      = SLA PW PBE PBE ( 1  4  3  4 0 0)
     nstep                     =          100


     celldm(1)=   7.945779  celldm(2)=   0.553536  celldm(3)=   1.059490
     celldm(4)=   0.000000  celldm(5)=  -0.626896  celldm(6)=   0.000000

     crystal axes: (cart. coord. in units of alat)
               a(1) = (   1.000000   0.000000   0.000000 )  
               a(2) = (   0.000000   0.553536   0.000000 )  
               a(3) = (  -0.664190   0.000000   0.825452 )  

     reciprocal axes: (cart. coord. in units 2 pi/alat)
               b(1) = (  1.000000 -0.000000  0.804638 )  
               b(2) = (  0.000000  1.806567 -0.000000 )  
               b(3) = (  0.000000  0.000000  1.211458 )  


     PseudoPot. # 1 for O  read from file:
     ../pseudo/O.pbe-van_ak.UPF
     MD5 check sum: 572909515f9aa9498032b6eb5528d5f9
     Pseudo is Ultrasoft, Zval =  6.0
     Generated by new atomic code, or converted to UPF format
     Using radial grid of  737 points,  4 beta functions with: 
                l(1) =   0
                l(2) =   0
                l(3) =   1
                l(4) =   1
     Q(r) pseudized with  8 coefficients,  rinner =    0.800   0.800   0.800


     atomic species   valence    mass     pseudopotential
        O              6.00    15.99940     O ( 1.00)

      4 Sym. Ops., with inversion, found


                                    s                        frac. trans.

      isym =  1     identity                                     

 cryst.   s( 1) = (     1          0          0      )
                  (     0          1          0      )
                  (     0          0          1      )

 cart.    s( 1) = (  1.0000000  0.0000000  0.0000000 )
                  (  0.0000000  1.0000000  0.0000000 )
                  (  0.0000000  0.0000000  1.0000000 )


      isym =  2     180 deg rotation - cart. axis [0,1,0]        

 cryst.   s( 2) = (    -1          0          0      )
                  (     0          1          0      )
                  (     0          0         -1      )

 cart.    s( 2) = ( -1.0000000  0.0000000  0.0000000 )
                  (  0.0000000  1.0000000  0.0000000 )
                  (  0.0000000  0.0000000 -1.0000000 )


      isym =  3     inversion                                    

 cryst.   s( 3) = (    -1          0          0      )
                  (     0         -1          0      )
                  (     0          0         -1      )

 cart.    s( 3) = ( -1.0000000  0.0000000  0.0000000 )
                  (  0.0000000 -1.0000000  0.0000000 )
                  (  0.0000000  0.0000000 -1.0000000 )


      isym =  4     inv. 180 deg rotation - cart. axis [0,1,0]   

 cryst.   s( 4) = (     1          0          0      )
                  (     0         -1          0      )
                  (     0          0          1      )

 cart.    s( 4) = (  1.0000000  0.0000000  0.0000000 )
                  (  0.0000000 -1.0000000  0.0000000 )
                  (  0.0000000  0.0000000  1.0000000 )


     point group C_2h (2/m) 
     there are  4 classes
     the character table:

       E     C2    i     s_h  
A_g    1.00  1.00  1.00  1.00
B_g    1.00 -1.00  1.00 -1.00
A_u    1.00  1.00 -1.00 -1.00
B_u    1.00 -1.00 -1.00  1.00

     the symmetry operations in each class and the name of the first element:

     E        1
          identity                                               
     C2       2
          180 deg rotation - cart. axis [0,1,0]                  
     i        3
          inversion                                              
     s_h      4
          inv. 180 deg rotation - cart. axis [0,1,0]             

   Cartesian axes

     site n.     atom                  positions (alat units)
         1           O   tau(   1) = (  -0.0126211   0.0000000   0.1262941  )
         2           O   tau(   2) = (   0.4873789   0.2767680   0.1262941  )
         3           O   tau(   3) = (  -0.1515690   0.2767680   0.6991576  )
         4           O   tau(   4) = (   0.3484310   0.0000000   0.6991576  )

   Crystallographic axes

     site n.     atom                  positions (cryst. coord.)
         1           O   tau(   1) = (  0.0890000  0.0000000  0.1530000  )
         2           O   tau(   2) = (  0.5890000  0.5000000  0.1530000  )
         3           O   tau(   3) = (  0.4110000  0.5000000  0.8470000  )
         4           O   tau(   4) = (  0.9110000  0.0000000  0.8470000  )

     number of k points=    40  gaussian smearing, width (Ry)=  0.0100
                       cart. coord. in units 2pi/alat
        k(    1) = (   0.0000000   0.0000000   0.0000000), wk =   0.0208333
        k(    2) = (   0.0000000   0.0000000   0.3028645), wk =   0.0416667
        k(    3) = (   0.0000000   0.0000000  -0.6057289), wk =   0.0208333
        k(    4) = (   0.0000000   0.3010945   0.0000000), wk =   0.0416667
        k(    5) = (   0.0000000   0.3010945   0.3028645), wk =   0.0833333
        k(    6) = (   0.0000000   0.3010945  -0.6057289), wk =   0.0416667
        k(    7) = (   0.0000000   0.6021890   0.0000000), wk =   0.0416667
        k(    8) = (   0.0000000   0.6021890   0.3028645), wk =   0.0833333
        k(    9) = (   0.0000000   0.6021890  -0.6057289), wk =   0.0416667
        k(   10) = (   0.0000000  -0.9032835   0.0000000), wk =   0.0208333
        k(   11) = (   0.0000000  -0.9032835   0.3028645), wk =   0.0416667
        k(   12) = (   0.0000000  -0.9032835  -0.6057289), wk =   0.0208333
        k(   13) = (   0.2500000   0.0000000   0.2011596), wk =   0.0416667
        k(   14) = (   0.2500000   0.0000000   0.5040240), wk =   0.0416667
        k(   15) = (   0.2500000   0.0000000  -0.4045694), wk =   0.0416667
        k(   16) = (   0.2500000   0.0000000  -0.1017049), wk =   0.0416667
        k(   17) = (   0.2500000   0.3010945   0.2011596), wk =   0.0833333
        k(   18) = (   0.2500000   0.3010945   0.5040240), wk =   0.0833333
        k(   19) = (   0.2500000   0.3010945  -0.4045694), wk =   0.0833333
        k(   20) = (   0.2500000   0.3010945  -0.1017049), wk =   0.0833333
        k(   21) = (   0.2500000   0.6021890   0.2011596), wk =   0.0833333
        k(   22) = (   0.2500000   0.6021890   0.5040240), wk =   0.0833333
        k(   23) = (   0.2500000   0.6021890  -0.4045694), wk =   0.0833333
        k(   24) = (   0.2500000   0.6021890  -0.1017049), wk =   0.0833333
        k(   25) = (   0.2500000  -0.9032835   0.2011596), wk =   0.0416667
        k(   26) = (   0.2500000  -0.9032835   0.5040240), wk =   0.0416667
        k(   27) = (   0.2500000  -0.9032835  -0.4045694), wk =   0.0416667
        k(   28) = (   0.2500000  -0.9032835  -0.1017049), wk =   0.0416667
        k(   29) = (  -0.5000000   0.0000000  -0.4023191), wk =   0.0208333
        k(   30) = (  -0.5000000   0.0000000  -0.0994546), wk =   0.0416667
        k(   31) = (  -0.5000000   0.0000000  -1.0080480), wk =   0.0208333
        k(   32) = (  -0.5000000   0.3010945  -0.4023191), wk =   0.0416667
        k(   33) = (  -0.5000000   0.3010945  -0.0994546), wk =   0.0833333
        k(   34) = (  -0.5000000   0.3010945  -1.0080480), wk =   0.0416667
        k(   35) = (  -0.5000000   0.6021890  -0.4023191), wk =   0.0416667
        k(   36) = (  -0.5000000   0.6021890  -0.0994546), wk =   0.0833333
        k(   37) = (  -0.5000000   0.6021890  -1.0080480), wk =   0.0416667
        k(   38) = (  -0.5000000  -0.9032835  -0.4023191), wk =   0.0208333
        k(   39) = (  -0.5000000  -0.9032835  -0.0994546), wk =   0.0416667
        k(   40) = (  -0.5000000  -0.9032835  -1.0080480), wk =   0.0208333

                       cryst. coord.
        k(    1) = (   0.0000000   0.0000000   0.0000000), wk =   0.0208333
        k(    2) = (   0.0000000   0.0000000   0.2500000), wk =   0.0416667
        k(    3) = (   0.0000000   0.0000000  -0.5000000), wk =   0.0208333
        k(    4) = (   0.0000000   0.1666667   0.0000000), wk =   0.0416667
        k(    5) = (   0.0000000   0.1666667   0.2500000), wk =   0.0833333
        k(    6) = (   0.0000000   0.1666667  -0.5000000), wk =   0.0416667
        k(    7) = (   0.0000000   0.3333333   0.0000000), wk =   0.0416667
        k(    8) = (   0.0000000   0.3333333   0.2500000), wk =   0.0833333
        k(    9) = (   0.0000000   0.3333333  -0.5000000), wk =   0.0416667
        k(   10) = (   0.0000000  -0.5000000   0.0000000), wk =   0.0208333
        k(   11) = (   0.0000000  -0.5000000   0.2500000), wk =   0.0416667
        k(   12) = (   0.0000000  -0.5000000  -0.5000000), wk =   0.0208333
        k(   13) = (   0.2500000   0.0000000   0.0000000), wk =   0.0416667
        k(   14) = (   0.2500000   0.0000000   0.2500000), wk =   0.0416667
        k(   15) = (   0.2500000   0.0000000  -0.5000000), wk =   0.0416667
        k(   16) = (   0.2500000   0.0000000  -0.2500000), wk =   0.0416667
        k(   17) = (   0.2500000   0.1666667   0.0000000), wk =   0.0833333
        k(   18) = (   0.2500000   0.1666667   0.2500000), wk =   0.0833333
        k(   19) = (   0.2500000   0.1666667  -0.5000000), wk =   0.0833333
        k(   20) = (   0.2500000   0.1666667  -0.2500000), wk =   0.0833333
        k(   21) = (   0.2500000   0.3333333   0.0000000), wk =   0.0833333
        k(   22) = (   0.2500000   0.3333333   0.2500000), wk =   0.0833333
        k(   23) = (   0.2500000   0.3333333  -0.5000000), wk =   0.0833333
        k(   24) = (   0.2500000   0.3333333  -0.2500000), wk =   0.0833333
        k(   25) = (   0.2500000  -0.5000000   0.0000000), wk =   0.0416667
        k(   26) = (   0.2500000  -0.5000000   0.2500000), wk =   0.0416667
        k(   27) = (   0.2500000  -0.5000000  -0.5000000), wk =   0.0416667
        k(   28) = (   0.2500000  -0.5000000  -0.2500000), wk =   0.0416667
        k(   29) = (  -0.5000000   0.0000000   0.0000000), wk =   0.0208333
        k(   30) = (  -0.5000000   0.0000000   0.2500000), wk =   0.0416667
        k(   31) = (  -0.5000000   0.0000000  -0.5000000), wk =   0.0208333
        k(   32) = (  -0.5000000   0.1666667   0.0000000), wk =   0.0416667
        k(   33) = (  -0.5000000   0.1666667   0.2500000), wk =   0.0833333
        k(   34) = (  -0.5000000   0.1666667  -0.5000000), wk =   0.0416667
        k(   35) = (  -0.5000000   0.3333333   0.0000000), wk =   0.0416667
        k(   36) = (  -0.5000000   0.3333333   0.2500000), wk =   0.0833333
        k(   37) = (  -0.5000000   0.3333333  -0.5000000), wk =   0.0416667
        k(   38) = (  -0.5000000  -0.5000000   0.0000000), wk =   0.0208333
        k(   39) = (  -0.5000000  -0.5000000   0.2500000), wk =   0.0416667
        k(   40) = (  -0.5000000  -0.5000000  -0.5000000), wk =   0.0208333

     Dense  grid:    21683 G-vectors     FFT dimensions: (  45,  25,  48)

     Smooth grid:     6401 G-vectors     FFT dimensions: (  30,  18,  32)

     Dynamical RAM for                 wfc:       0.02 MB

     Dynamical RAM for     wfc (w. buffer):       1.00 MB

     Dynamical RAM for           str. fact:       0.04 MB

     Dynamical RAM for           local pot:       0.00 MB

     Dynamical RAM for          nlocal pot:       0.05 MB

     Dynamical RAM for                qrad:       1.03 MB

     Dynamical RAM for          rho,v,vnew:       0.28 MB

     Dynamical RAM for               rhoin:       0.09 MB

     Dynamical RAM for            rho*nmix:       0.66 MB

     Dynamical RAM for           G-vectors:       0.16 MB

     Dynamical RAM for          h,s,v(r/c):       0.19 MB

     Dynamical RAM for          <psi|beta>:       0.01 MB

     Dynamical RAM for                 psi:       0.10 MB

     Dynamical RAM for                hpsi:       0.10 MB

     Dynamical RAM for                spsi:       0.10 MB

     Dynamical RAM for      wfcinit/wfcrot:       0.05 MB

     Dynamical RAM for           addusdens:       1.94 MB

     Dynamical RAM for          addusforce:       2.22 MB

     Dynamical RAM for         addusstress:       2.07 MB

     Estimated static dynamical RAM per process >       3.65 MB

     Estimated max dynamical RAM per process >       5.87 MB

     Estimated total dynamical RAM >      46.96 MB

     Initial potential from superposition of free atoms

     starting charge   23.99999, renormalised to   24.00000
     Starting wfcs are   16 randomized atomic wfcs

     total cpu time spent up to now is        1.1 secs

     Self-consistent Calculation

     iteration #  1     ecut=    35.00 Ry     beta= 0.40
     Davidson diagonalization with overlap
     ethr =  1.00E-02,  avg # of iterations =  4.2

     Threshold (ethr) on eigenvalues was too large:
     Diagonalizing with lowered threshold

     Davidson diagonalization with overlap
     ethr =  7.08E-04,  avg # of iterations =  1.0

     total cpu time spent up to now is        2.0 secs

     total energy              =    -127.44239402 Ry
     Harris-Foulkes estimate   =    -127.51567136 Ry
     estimated scf accuracy    <       0.17081934 Ry

     iteration #  2     ecut=    35.00 Ry     beta= 0.40
     Davidson diagonalization with overlap
     ethr =  7.12E-04,  avg # of iterations =  1.1

     total cpu time spent up to now is        2.3 secs

     total energy              =    -127.43629915 Ry
     Harris-Foulkes estimate   =    -127.45236618 Ry
     estimated scf accuracy    <       0.03176669 Ry

     iteration #  3     ecut=    35.00 Ry     beta= 0.40
     Davidson diagonalization with overlap
     ethr =  1.32E-04,  avg # of iterations =  2.5

     total cpu time spent up to now is        2.8 secs

     total energy              =    -127.44428706 Ry
     Harris-Foulkes estimate   =    -127.44429294 Ry
     estimated scf accuracy    <       0.00097074 Ry

     iteration #  4     ecut=    35.00 Ry     beta= 0.40
     Davidson diagonalization with overlap
     ethr =  4.04E-06,  avg # of iterations =  2.9

     total cpu time spent up to now is        3.2 secs

     total energy              =    -127.44444020 Ry
     Harris-Foulkes estimate   =    -127.44433882 Ry
     estimated scf accuracy    <       0.00030347 Ry

     iteration #  5     ecut=    35.00 Ry     beta= 0.40
     Davidson diagonalization with overlap
     ethr =  1.26E-06,  avg # of iterations =  2.5

     total cpu time spent up to now is        3.6 secs

     total energy              =    -127.44446739 Ry
     Harris-Foulkes estimate   =    -127.44448457 Ry
     estimated scf accuracy    <       0.00015313 Ry

     iteration #  6     ecut=    35.00 Ry     beta= 0.40
     Davidson diagonalization with overlap
     ethr =  6.38E-07,  avg # of iterations =  1.0

     total cpu time spent up to now is        3.9 secs

     total energy              =    -127.44447293 Ry
     Harris-Foulkes estimate   =    -127.44447984 Ry
     estimated scf accuracy    <       0.00001496 Ry

     iteration #  7     ecut=    35.00 Ry     beta= 0.40
     Davidson diagonalization with overlap
     ethr =  6.23E-08,  avg # of iterations =  2.0

     total cpu time spent up to now is        4.3 secs

     End of self-consistent calculation

          k = 0.0000 0.0000 0.0000 (   803 PWs)   bands (ev):

   -26.3746 -25.3339  -8.4398  -7.6526  -5.8989  -4.7494  -1.9835  -1.5419
    -1.2858  -1.0484   3.8177   8.1394   8.3049   8.6118  18.1341  19.2632

     occupation numbers 
     1.0000   1.0000   1.0000   1.0000   1.0000   1.0000   1.0000   1.0000
     1.0000   1.0000   1.0000   0.0000   0.0000   0.0000   0.0000   0.0000

          k = 0.0000 0.0000 0.3029 (   804 PWs)   bands (ev):

   -26.3521 -25.3412  -9.1956  -7.3494  -6.0646  -3.6324  -1.9946  -1.9411
    -1.2971  -1.0694   4.2380   7.9960   8.3484   8.6820  16.9964  18.1462

     occupation numbers 
     1.0000   1.0000   1.0000   1.0000   1.0000   1.0000   1.0000   1.0000
     1.0000   1.0000   1.0000   0.0000   0.0000   0.0000   0.0000   0.0000

          k = 0.0000 0.0000-0.6057 (   798 PWs)   bands (ev):

   -26.3295 -25.3471  -9.7390  -6.9906  -6.2128  -2.6894  -2.5293  -1.8985
    -1.3103  -1.0892   4.7344   7.8525   8.3967   8.7519  15.4825  18.0127

     occupation numbers 
     1.0000   1.0000   1.0000   1.0000   1.0000   1.0000   1.0000   1.0000
     1.0000   1.0000   1.0000   0.0000   0.0000   0.0000   0.0000   0.0000

          k = 0.0000 0.3011 0.0000 (   794 PWs)   bands (ev):

   -26.1634 -25.2419  -8.1376  -7.4070  -5.5425  -4.7674  -3.1209  -1.6957
    -1.4730  -1.4032   4.2103   7.2492   7.7124   8.1689  18.8469  19.6885

     occupation numbers 
     1.0000   1.0000   1.0000   1.0000   1.0000   1.0000   1.0000   1.0000
     1.0000   1.0000   1.0000   0.0070   0.0000   0.0000   0.0000   0.0000

          k = 0.0000 0.3011 0.3029 (   804 PWs)   bands (ev):

   -26.1429 -25.2476  -8.8412  -7.1484  -5.6977  -3.8724  -3.1369  -1.7123
    -1.5999  -1.4795   4.6013   7.0792   7.7748   8.2244  17.3576  19.3827

     occupation numbers 
     1.0000   1.0000   1.0000   1.0000   1.0000   1.0000   1.0000   1.0000
     1.0000   1.0000   1.0000   0.2443   0.0000   0.0000   0.0000   0.0000

          k = 0.0000 0.3011-0.6057 (   808 PWs)   bands (ev):

   -26.1225 -25.2530  -9.3504  -6.8509  -5.8293  -3.2484  -3.2369  -2.0017
    -1.5058  -1.3748   5.0620   6.8888   7.8187   8.2854  16.0784  19.1845

     occupation numbers 
     1.0000   1.0000   1.0000   1.0000   1.0000   1.0000   1.0000   1.0000
     1.0000   1.0000   1.0000   0.9009   0.0000   0.0000   0.0000   0.0000

          k = 0.0000 0.6022 0.0000 (   810 PWs)   bands (ev):

   -25.6626 -25.1053  -7.4085  -6.9125  -5.2722  -4.8950  -4.5704  -2.2048
    -2.1279  -1.4886   5.2565   5.6110   5.9559   7.6290  19.5250  20.7731

     occupation numbers 
     1.0000   1.0000   1.0000   1.0000   1.0000   1.0000   1.0000   1.0000
     1.0000   1.0000   1.0000   1.0000   1.0000   0.0000   0.0000   0.0000

          k = 0.0000 0.6022 0.3029 (   800 PWs)   bands (ev):

   -25.6479 -25.1058  -7.9424  -6.8239  -4.8965  -4.8405  -4.6841  -2.1772
    -1.8424  -1.6226   5.3622   5.6526   5.9876   7.7369  18.3514  20.7798

     occupation numbers 
     1.0000   1.0000   1.0000   1.0000   1.0000   1.0000   1.0000   1.0000
     1.0000   1.0000   1.0000   1.0000   1.0000   0.0000   0.0000   0.0000

          k = 0.0000 0.6022-0.6057 (   808 PWs)   bands (ev):

   -25.6333 -25.1066  -8.3357  -6.7204  -4.8322  -4.7749  -4.7042  -2.1875
    -1.7324  -1.4521   5.2237   5.9233   5.9678   7.8465  17.6811  21.0367

     occupation numbers 
     1.0000   1.0000   1.0000   1.0000   1.0000   1.0000   1.0000   1.0000
     1.0000   1.0000   1.0000   1.0000   1.0000   0.0000   0.0000   0.0000

          k = 0.0000-0.9033 0.0000 (   800 PWs)   bands (ev):

   -25.2157 -25.2151  -6.8137  -6.8135  -5.7169  -5.7167  -3.2753  -3.2750
    -1.8503  -1.8500   4.9558   4.9559   6.5693   6.5695  20.6681  20.6681

     occupation numbers 
     1.0000   1.0000   1.0000   1.0000   1.0000   1.0000   1.0000   1.0000
     1.0000   1.0000   1.0000   1.0000   1.0000   1.0000   0.0000   0.0000

          k = 0.0000-0.9033 0.3029 (   792 PWs)   bands (ev):

   -25.2092 -25.2085  -7.0487  -7.0485  -5.5593  -5.5591  -3.3447  -3.3443
    -1.6924  -1.6921   4.8885   4.8887   6.7789   6.7792  19.7547  19.7548

     occupation numbers 
     1.0000   1.0000   1.0000   1.0000   1.0000   1.0000   1.0000   1.0000
     1.0000   1.0000   1.0000   1.0000   0.9924   0.9924   0.0000   0.0000

          k = 0.0000-0.9033-0.6057 (   796 PWs)   bands (ev):

   -25.2029 -25.2023  -7.2167  -7.2165  -5.5031  -5.5028  -3.3894  -3.3891
    -1.4937  -1.4934   4.7590   4.7591   6.9895   6.9898  19.9597  19.9600

     occupation numbers 
     1.0000   1.0000   1.0000   1.0000   1.0000   1.0000   1.0000   1.0000
     1.0000   1.0000   1.0000   1.0000   0.5947   0.5935   0.0000   0.0000

          k = 0.2500 0.0000 0.2012 (   790 PWs)   bands (ev):

   -26.2265 -25.4917  -8.6083  -7.9592  -5.5614  -4.3039  -1.8427  -1.7385
    -1.6039  -1.1822   4.7453   7.8742   8.1700   8.5032  18.1408  18.6522

     occupation numbers 
     1.0000   1.0000   1.0000   1.0000   1.0000   1.0000   1.0000   1.0000
     1.0000   1.0000   1.0000   0.0000   0.0000   0.0000   0.0000   0.0000

          k = 0.2500 0.0000 0.5040 (   800 PWs)   bands (ev):

   -26.1976 -25.5047  -9.4080  -7.4683  -5.7693  -3.2287  -2.3216  -1.7878
    -1.5216  -1.2167   5.2761   7.8482   7.9808   8.6165  16.1028  18.8684

     occupation numbers 
     1.0000   1.0000   1.0000   1.0000   1.0000   1.0000   1.0000   1.0000
     1.0000   1.0000   1.0000   0.0000   0.0000   0.0000   0.0000   0.0000

          k = 0.2500 0.0000-0.4046 (   802 PWs)   bands (ev):

   -26.2050 -25.5125  -9.2601  -7.2508  -5.7956  -3.3674  -2.4921  -1.7978
    -1.5863  -1.2273   4.9943   7.6514   8.0160   8.6521  16.4628  18.9856

     occupation numbers 
     1.0000   1.0000   1.0000   1.0000   1.0000   1.0000   1.0000   1.0000
     1.0000   1.0000   1.0000   0.0000   0.0000   0.0000   0.0000   0.0000

          k = 0.2500 0.0000-0.1017 (   792 PWs)   bands (ev):

   -26.2340 -25.4994  -8.3813  -7.8128  -5.5134  -4.5645  -1.8526  -1.7942
    -1.7484  -1.1933   4.5136   7.6815   8.2054   8.5375  18.4805  18.7080

     occupation numbers 
     1.0000   1.0000   1.0000   1.0000   1.0000   1.0000   1.0000   1.0000
     1.0000   1.0000   1.0000   0.0000   0.0000   0.0000   0.0000   0.0000

          k = 0.2500 0.3011 0.2012 (   798 PWs)   bands (ev):

   -26.0304 -25.3792  -8.2968  -7.7026  -5.3394  -4.4878  -2.8579  -1.8819
    -1.6225  -1.4325   4.9454   7.2119   7.3693   8.1830  18.4072  19.0912

     occupation numbers 
     1.0000   1.0000   1.0000   1.0000   1.0000   1.0000   1.0000   1.0000
     1.0000   1.0000   1.0000   0.0191   0.0001   0.0000   0.0000   0.0000

          k = 0.2500 0.3011 0.5040 (   796 PWs)   bands (ev):

   -26.0040 -25.3903  -9.0405  -7.2741  -5.5386  -3.7252  -2.9230  -1.9002
    -1.6535  -1.4819   5.4050   7.1715   7.2595   8.2403  16.6463  19.5900

     occupation numbers 
     1.0000   1.0000   1.0000   1.0000   1.0000   1.0000   1.0000   1.0000
     1.0000   1.0000   1.0000   0.0493   0.0051   0.0000   0.0000   0.0000

          k = 0.2500 0.3011-0.4046 (   805 PWs)   bands (ev):

   -26.0110 -25.3976  -8.9010  -7.0777  -5.5776  -3.8012  -2.9135  -2.0640
    -1.6675  -1.5984   5.2113   7.1683   7.2434   8.1510  16.9177  19.9091

     occupation numbers 
     1.0000   1.0000   1.0000   1.0000   1.0000   1.0000   1.0000   1.0000
     1.0000   1.0000   1.0000   0.0527   0.0082   0.0000   0.0000   0.0000

          k = 0.2500 0.3011-0.1017 (   800 PWs)   bands (ev):

   -26.0370 -25.3863  -8.0864  -7.5672  -5.3068  -4.6728  -2.8465  -1.9947
    -1.6246  -1.5934   4.7823   7.2142   7.3827   8.0782  18.7159  19.0402

     occupation numbers 
     1.0000   1.0000   1.0000   1.0000   1.0000   1.0000   1.0000   1.0000
     1.0000   1.0000   1.0000   0.0180   0.0001   0.0000   0.0000   0.0000

          k = 0.2500 0.6022 0.2012 (   806 PWs)   bands (ev):

   -25.5765 -25.1820  -7.5508  -7.1573  -5.4602  -5.3575  -3.5882  -2.0700
    -2.0355  -1.4699   4.8133   5.4545   6.6141   7.8596  19.1283  20.2047

     occupation numbers 
     1.0000   1.0000   1.0000   1.0000   1.0000   1.0000   1.0000   1.0000
     1.0000   1.0000   1.0000   1.0000   1.0000   0.0000   0.0000   0.0000

          k = 0.2500 0.6022 0.5040 (   804 PWs)   bands (ev):

   -25.5585 -25.1863  -8.1051  -6.9520  -5.5355  -5.0817  -3.6087  -2.0710
    -1.7176  -1.5509   4.8202   5.5160   6.7484   7.9354  18.1008  20.4546

     occupation numbers 
     1.0000   1.0000   1.0000   1.0000   1.0000   1.0000   1.0000   1.0000
     1.0000   1.0000   1.0000   1.0000   0.9970   0.0000   0.0000   0.0000

          k = 0.2500 0.6022-0.4046 (   803 PWs)   bands (ev):

   -25.5642 -25.1921  -7.9906  -6.8210  -5.5610  -5.0963  -3.5746  -2.0429
    -1.8707  -1.7416   4.9673   5.6593   6.5132   7.7763  18.1571  20.3956

     occupation numbers 
     1.0000   1.0000   1.0000   1.0000   1.0000   1.0000   1.0000   1.0000
     1.0000   1.0000   1.0000   1.0000   1.0000   0.0000   0.0000   0.0000

          k = 0.2500 0.6022-0.1017 (   806 PWs)   bands (ev):

   -25.5821 -25.1879  -7.3938  -7.0603  -5.4367  -5.3954  -3.5620  -2.3062
    -1.9826  -1.6445   4.9712   5.6075   6.4077   7.7006  19.1995  19.7745

     occupation numbers 
     1.0000   1.0000   1.0000   1.0000   1.0000   1.0000   1.0000   1.0000
     1.0000   1.0000   1.0000   1.0000   1.0000   0.0000   0.0000   0.0000

          k = 0.2500-0.9033 0.2012 (   808 PWs)   bands (ev):

   -25.2074 -25.2068  -6.9757  -6.9754  -5.9721  -5.9720  -2.8069  -2.8066
    -1.7370  -1.7367   4.4051   4.4051   7.2453   7.2455  20.1398  20.1398

     occupation numbers 
     1.0000   1.0000   1.0000   1.0000   1.0000   1.0000   1.0000   1.0000
     1.0000   1.0000   1.0000   1.0000   0.0078   0.0077   0.0000   0.0000

          k = 0.2500-0.9033 0.5040 (   802 PWs)   bands (ev):

   -25.2010 -25.2004  -7.1723  -7.1720  -5.8858  -5.8857  -2.8425  -2.8423
    -1.5707  -1.5704   4.3765   4.3766   7.4032   7.4035  20.0561  20.0563

     occupation numbers 
     1.0000   1.0000   1.0000   1.0000   1.0000   1.0000   1.0000   1.0000
     1.0000   1.0000   1.0000   1.0000   0.0000   0.0000   0.0000   0.0000

          k = 0.2500-0.9033-0.4046 (   804 PWs)   bands (ev):

   -25.2058 -25.2052  -7.0904  -7.0901  -5.8716  -5.8715  -2.8358  -2.8356
    -1.7141  -1.7138   4.5615   4.5616   7.2130   7.2132  19.8086  19.8087

     occupation numbers 
     1.0000   1.0000   1.0000   1.0000   1.0000   1.0000   1.0000   1.0000
     1.0000   1.0000   1.0000   1.0000   0.0186   0.0185   0.0000   0.0000

          k = 0.2500-0.9033-0.1017 (   818 PWs)   bands (ev):

   -25.2127 -25.2121  -6.9071  -6.9069  -5.9220  -5.9219  -2.8189  -2.8186
    -1.8965  -1.8963   4.6187   4.6188   7.0531   7.0534  19.8989  19.8990

     occupation numbers 
     1.0000   1.0000   1.0000   1.0000   1.0000   1.0000   1.0000   1.0000
     1.0000   1.0000   1.0000   1.0000   0.3366   0.3357   0.0000   0.0000

          k =-0.5000 0.0000-0.4023 (   794 PWs)   bands (ev):

   -25.8641 -25.8635  -8.5233  -8.5231  -4.5344  -4.5342  -1.9194  -1.9193
    -1.5100  -1.5097   6.5572   6.5574   8.2950   8.2952  17.6649  17.6651

     occupation numbers 
     1.0000   1.0000   1.0000   1.0000   1.0000   1.0000   1.0000   1.0000
     1.0000   1.0000   1.0000   1.0000   0.0000   0.0000   0.0000   0.0000

          k =-0.5000 0.0000-0.0995 (   799 PWs)   bands (ev):

   -25.8866 -25.8563  -8.7698  -7.7821  -5.0554  -4.3299  -2.4601  -1.5873
    -1.5516  -1.4888   6.1652   6.5066   8.2238   8.4393  17.0328  19.0606

     occupation numbers 
     1.0000   1.0000   1.0000   1.0000   1.0000   1.0000   1.0000   1.0000
     1.0000   1.0000   1.0000   1.0000   0.0000   0.0000   0.0000   0.0000

          k =-0.5000 0.0000-1.0080 (   794 PWs)   bands (ev):

   -25.8794 -25.8788  -8.1526  -8.1524  -4.6927  -4.6926  -2.1821  -2.1821
    -1.5307  -1.5304   6.1286   6.1289   8.3665   8.3667  18.3238  18.3238

     occupation numbers 
     1.0000   1.0000   1.0000   1.0000   1.0000   1.0000   1.0000   1.0000
     1.0000   1.0000   1.0000   1.0000   0.0000   0.0000   0.0000   0.0000

          k =-0.5000 0.3011-0.4023 (   792 PWs)   bands (ev):

   -25.7071 -25.7065  -8.2224  -8.2222  -4.6976  -4.6975  -2.2338  -2.2337
    -1.6851  -1.6848   6.2646   6.2648   7.7837   7.7838  18.0915  18.0916

     occupation numbers 
     1.0000   1.0000   1.0000   1.0000   1.0000   1.0000   1.0000   1.0000
     1.0000   1.0000   1.0000   1.0000   0.0000   0.0000   0.0000   0.0000

          k =-0.5000 0.3011-0.0995 (   795 PWs)   bands (ev):

   -25.7272 -25.7003  -8.4449  -7.5471  -5.1374  -4.5238  -2.3584  -2.2085
    -2.0458  -1.4658   6.0453   6.2566   7.6736   7.8255  17.5310  19.2971

     occupation numbers 
     1.0000   1.0000   1.0000   1.0000   1.0000   1.0000   1.0000   1.0000
     1.0000   1.0000   1.0000   1.0000   0.0000   0.0000   0.0000   0.0000

          k =-0.5000 0.3011-1.0080 (   794 PWs)   bands (ev):

   -25.7210 -25.7204  -7.8813  -7.8811  -4.8190  -4.8190  -2.2005  -2.2005
    -2.0161  -2.0158   6.0574   6.0576   7.7277   7.7279  18.5381  18.5381

     occupation numbers 
     1.0000   1.0000   1.0000   1.0000   1.0000   1.0000   1.0000   1.0000
     1.0000   1.0000   1.0000   1.0000   0.0000   0.0000   0.0000   0.0000

          k =-0.5000 0.6022-0.4023 (   794 PWs)   bands (ev):

   -25.3751 -25.3744  -7.5331  -7.5329  -5.5709  -5.5708  -2.4946  -2.4945
    -1.6550  -1.6548   4.8984   4.8984   7.6418   7.6420  19.1879  19.1881

     occupation numbers 
     1.0000   1.0000   1.0000   1.0000   1.0000   1.0000   1.0000   1.0000
     1.0000   1.0000   1.0000   1.0000   0.0000   0.0000   0.0000   0.0000

          k =-0.5000 0.6022-0.0995 (   800 PWs)   bands (ev):

   -25.3888 -25.3724  -7.6610  -7.0740  -5.7649  -5.5105  -2.4849  -2.4590
    -2.0610  -1.5416   4.9222   5.0076   7.4696   7.5209  18.9013  19.7840

     occupation numbers 
     1.0000   1.0000   1.0000   1.0000   1.0000   1.0000   1.0000   1.0000
     1.0000   1.0000   1.0000   1.0000   0.0000   0.0000   0.0000   0.0000

          k =-0.5000 0.6022-1.0080 (   808 PWs)   bands (ev):

   -25.3865 -25.3859  -7.2894  -7.2892  -5.5759  -5.5759  -2.4745  -2.4745
    -2.0034  -2.0033   5.1140   5.1140   7.3464   7.3465  19.0384  19.0385

     occupation numbers 
     1.0000   1.0000   1.0000   1.0000   1.0000   1.0000   1.0000   1.0000
     1.0000   1.0000   1.0000   1.0000   0.0003   0.0003   0.0000   0.0000

          k =-0.5000-0.9033-0.4023 (   812 PWs)   bands (ev):

   -25.1991 -25.1985  -7.1273  -7.1271  -6.1675  -6.1674  -2.3645  -2.3643
    -1.6775  -1.6773   4.0813   4.0814   7.7278   7.7280  19.8881  20.1927

     occupation numbers 
     1.0000   1.0000   1.0000   1.0000   1.0000   1.0000   1.0000   1.0000
     1.0000   1.0000   1.0000   1.0000   0.0000   0.0000   0.0000   0.0000

          k =-0.5000-0.9033-0.0995 (   808 PWs)   bands (ev):

   -25.2041 -25.2035  -7.0209  -7.0207  -6.1932  -6.1930  -2.3212  -2.3209
    -1.8182  -1.8179   4.1761   4.1762   7.5803   7.5805  20.0146  20.0146

     occupation numbers 
     1.0000   1.0000   1.0000   1.0000   1.0000   1.0000   1.0000   1.0000
     1.0000   1.0000   1.0000   1.0000   0.0000   0.0000   0.0000   0.0000

          k =-0.5000-0.9033-1.0080 (   804 PWs)   bands (ev):

   -25.2088 -25.2082  -7.0111  -7.0109  -6.0616  -6.0615  -2.2770  -2.2768
    -2.0779  -2.0776   4.3864   4.3865   7.4361   7.4363  19.4001  19.4002

     occupation numbers 
     1.0000   1.0000   1.0000   1.0000   1.0000   1.0000   1.0000   1.0000
     1.0000   1.0000   1.0000   1.0000   0.0000   0.0000   0.0000   0.0000

     the Fermi energy is     7.0125 ev

!    total energy              =    -127.44447783 Ry
     Harris-Foulkes estimate   =    -127.44447632 Ry
     estimated scf accuracy    <       0.00000022 Ry

     The total energy is the sum of the following terms:

     one-electron contribution =     -52.07558725 Ry
     hartree contribution      =      38.73574380 Ry
     xc contribution           =     -27.92946227 Ry
     ewald contribution        =     -86.17434369 Ry
     smearing contrib. (-TS)   =      -0.00082841 Ry

     convergence has been achieved in   7 iterations

     Forces acting on atoms (cartesian axes, Ry/au):

     atom    1 type  1   force =    -0.04528285   -0.00000000    0.86267583
     atom    2 type  1   force =    -0.04531957    0.00000000    0.86292676
     atom    3 type  1   force =     0.04531957    0.00000000   -0.86292676
     atom    4 type  1   force =     0.04528285   -0.00000000   -0.86267583
     The non-local contrib.  to forces
     atom    1 type  1   force =     0.38690012    0.00000000   -3.51552937
     atom    2 type  1   force =     0.38686996    0.00000000   -3.51530118
     atom    3 type  1   force =    -0.38686996    0.00000000    3.51530118
     atom    4 type  1   force =    -0.38690012    0.00000000    3.51552937
     The ionic contribution  to forces
     atom    1 type  1   force =    -1.22354263   -0.00000000   16.80219260
     atom    2 type  1   force =    -1.22354263    0.00000000   16.80219260
     atom    3 type  1   force =     1.22354263    0.00000000  -16.80219260
     atom    4 type  1   force =     1.22354263    0.00000000  -16.80219260
     The local contribution  to forces
     atom    1 type  1   force =     0.79141611    0.00000000  -12.42467783
     atom    2 type  1   force =     0.79150296    0.00000000  -12.42503582
     atom    3 type  1   force =    -0.79150296    0.00000000   12.42503582
     atom    4 type  1   force =    -0.79141611   -0.00000000   12.42467783
     The core correction contribution to forces
     atom    1 type  1   force =     0.00000000    0.00000000    0.00000000
     atom    2 type  1   force =     0.00000000    0.00000000    0.00000000
     atom    3 type  1   force =     0.00000000    0.00000000    0.00000000
     atom    4 type  1   force =     0.00000000    0.00000000    0.00000000
     The Hubbard contrib.    to forces
     atom    1 type  1   force =     0.00000000    0.00000000    0.00000000
     atom    2 type  1   force =     0.00000000    0.00000000    0.00000000
     atom    3 type  1   force =     0.00000000    0.00000000    0.00000000
     atom    4 type  1   force =     0.00000000    0.00000000    0.00000000
     The SCF correction term to forces
     atom    1 type  1   force =    -0.00005645    0.00000000    0.00069043
     atom    2 type  1   force =    -0.00014987   -0.00000000    0.00107115
     atom    3 type  1   force =     0.00014987   -0.00000000   -0.00107115
     atom    4 type  1   force =     0.00005645   -0.00000000   -0.00069043

     Total force =     1.727980     Total SCF correction =     0.001816


     Computing stress (Cartesian axis) and pressure

          total   stress  (Ry/bohr**3)                   (kbar)     P=  856.50
   0.00094864   0.00000000  -0.00080929        139.55      0.00   -119.05
   0.00000000   0.00074403   0.00000000          0.00    109.45      0.00
  -0.00080929   0.00000000   0.01577439       -119.05      0.00   2320.49

     kinetic stress (kbar)  24608.63      0.00    378.32
                                0.00  24421.98      0.00
                              378.32      0.00  22114.42

     local   stress (kbar) -18719.90      0.00   3411.67
                                0.00 -20319.48     -0.00
                             3411.67     -0.00 -22248.13

     nonloc. stress (kbar)  13983.01      0.00    200.33
                                0.00  13900.15      0.00
                              200.33      0.00  12228.77

     hartree stress (kbar)   9492.60     -0.00   -809.31
                               -0.00  10171.66      0.00
                             -809.31      0.00   5195.25

     exc-cor stress (kbar)  -5682.76      0.00    -12.04
                                0.00  -5680.09     -0.00
                              -12.04     -0.00  -5592.35

     corecor stress (kbar)      0.00      0.00      0.00
                                0.00      0.00      0.00
                                0.00      0.00      0.00

     ewald   stress (kbar) -23542.03     -0.00  -3288.02
                               -0.00 -22384.77      0.00
                            -3288.02      0.00  -9377.46

     hubbard stress (kbar)      0.00      0.00      0.00
                                0.00      0.00      0.00
                                0.00      0.00      0.00

     london  stress (kbar)      0.00      0.00      0.00
                                0.00      0.00      0.00
                                0.00      0.00      0.00

     DFT-D3  stress (kbar)      0.00      0.00      0.00
                                0.00      0.00      0.00
                                0.00      0.00      0.00

     XDM     stress (kbar)      0.00      0.00      0.00
                                0.00      0.00      0.00
                                0.00      0.00      0.00

     dft-nl  stress (kbar)      0.00      0.00      0.00
                                0.00      0.00      0.00
                                0.00      0.00      0.00

     TS-vdW  stress (kbar)      0.00      0.00      0.00
                                0.00      0.00      0.00
                                0.00      0.00      0.00



     BFGS Geometry Optimization

     number of scf cycles    =   1
     number of bfgs steps    =   0

     enthalpy new            =    -127.2107498514 Ry

     new trust radius        =       0.5000000000 bohr
     new conv_thr            =       0.0000010000 Ry

     new unit-cell volume =    265.95763 a.u.^3 (    39.41085 Ang^3 )
     density =      2.69648 g/cm^3

CELL_PARAMETERS (alat=  7.94577871)
   0.999206159   0.000000000  -0.009043551
   0.000000000   0.551831039   0.000000000
  -0.671127784   0.000000000   0.967557703

ATOMIC_POSITIONS (crystal)
O        0.125501212  -0.000000000   0.211791268
O        0.625510504   0.500000000   0.211808368
O        0.374489496   0.500000000   0.788191632
O        0.874498788  -0.000000000   0.788208732



     Writing output data file O2alpha.save/
     NEW-OLD atomic charge density approx. for the potential
     extrapolated charge   27.31546, renormalised to   24.00000

     total cpu time spent up to now is        4.7 secs

     Self-consistent Calculation

     iteration #  1     ecut=    35.00 Ry     beta= 0.40
     Davidson diagonalization with overlap
     ethr =  1.00E-06,  avg # of iterations =  6.4

     total cpu time spent up to now is        5.7 secs

     total energy              =    -125.69728094 Ry
     Harris-Foulkes estimate   =    -124.83835095 Ry
     estimated scf accuracy    <       2.07405740 Ry

     iteration #  2     ecut=    35.00 Ry     beta= 0.40
     Davidson diagonalization with overlap
     ethr =  8.64E-03,  avg # of iterations =  3.0

     total cpu time spent up to now is        6.2 secs

     total energy              =    -127.21352845 Ry
     Harris-Foulkes estimate   =    -127.35511903 Ry
     estimated scf accuracy    <       0.40271114 Ry

     iteration #  3     ecut=    35.00 Ry     beta= 0.40
     Davidson diagonalization with overlap
     ethr =  1.68E-03,  avg # of iterations =  1.2

     total cpu time spent up to now is        6.5 secs

     total energy              =    -127.16681483 Ry
     Harris-Foulkes estimate   =    -127.23303485 Ry
     estimated scf accuracy    <       0.10728778 Ry

     iteration #  4     ecut=    35.00 Ry     beta= 0.40
     Davidson diagonalization with overlap
     ethr =  4.47E-04,  avg # of iterations =  2.0

     total cpu time spent up to now is        7.0 secs

     total energy              =    -127.19528534 Ry
     Harris-Foulkes estimate   =    -127.20542555 Ry
     estimated scf accuracy    <       0.10834703 Ry

     iteration #  5     ecut=    35.00 Ry     beta= 0.40
     Davidson diagonalization with overlap
     ethr =  4.47E-04,  avg # of iterations =  1.0

     total cpu time spent up to now is        7.3 secs

     total energy              =    -127.19429942 Ry
     Harris-Foulkes estimate   =    -127.20136202 Ry
     estimated scf accuracy    <       0.01510622 Ry

     iteration #  6     ecut=    35.00 Ry     beta= 0.40
     Davidson diagonalization with overlap
     ethr =  6.29E-05,  avg # of iterations =  2.0

     total cpu time spent up to now is        7.7 secs

     total energy              =    -127.19558149 Ry
     Harris-Foulkes estimate   =    -127.19602005 Ry
     estimated scf accuracy    <       0.00072706 Ry

     iteration #  7     ecut=    35.00 Ry     beta= 0.40
     Davidson diagonalization with overlap
     ethr =  3.03E-06,  avg # of iterations =  2.0

     total cpu time spent up to now is        8.1 secs

     total energy              =    -127.19582961 Ry
     Harris-Foulkes estimate   =    -127.19585458 Ry
     estimated scf accuracy    <       0.00007170 Ry

     iteration #  8     ecut=    35.00 Ry     beta= 0.40
     Davidson diagonalization with overlap
     ethr =  2.99E-07,  avg # of iterations =  2.0

     total cpu time spent up to now is        8.5 secs

     total energy              =    -127.19584254 Ry
     Harris-Foulkes estimate   =    -127.19584221 Ry
     estimated scf accuracy    <       0.00000280 Ry

     iteration #  9     ecut=    35.00 Ry     beta= 0.40
     Davidson diagonalization with overlap
     ethr =  1.17E-08,  avg # of iterations =  2.0

     total cpu time spent up to now is        8.9 secs

     End of self-consistent calculation

          k = 0.0000 0.0000 0.0000 (   803 PWs)   bands (ev):

   -18.0910 -15.7960 -13.9061 -12.7180  -4.0174  -2.8497  -1.1283  -0.8341
     1.7583   2.5878   2.8643   3.5009   3.8425   3.9688   4.0667   4.9807

     occupation numbers 
     1.0000   1.0000   1.0000   1.0000   1.0000   1.0000   1.0000   1.0000
     1.0000   0.1769   0.0001   0.0000   0.0000   0.0000   0.0000   0.0000

          k = 0.0024 0.0000 0.2600 (   804 PWs)   bands (ev):

   -17.9167 -15.8773 -14.3449 -12.5287  -3.1318  -3.0417  -1.6896  -0.4315
     1.8508   2.5429   2.8112   3.3824   3.8563   3.9056   4.1315   4.5950

     occupation numbers 
     1.0000   1.0000   1.0000   1.0000   1.0000   1.0000   1.0000   1.0000
     1.0000   0.3226   0.0006   0.0000   0.0000   0.0000   0.0000   0.0000

          k =-0.0047 0.0000-0.5200 (   798 PWs)   bands (ev):

   -17.7054 -15.9516 -14.7946 -12.3409  -3.2670  -2.3341  -1.7410   0.0274
     1.9592   2.2616   2.7140   2.7634   3.2473   3.9131   4.1925   5.1037

     occupation numbers 
     1.0000   1.0000   1.0000   1.0000   1.0000   1.0000   1.0000   1.0000
     1.0000   0.9931   0.0126   0.0030   0.0000   0.0000   0.0000   0.0000

          k = 0.0000 0.3020 0.0000 (   794 PWs)   bands (ev):

   -17.7092 -15.6243 -13.5922 -12.5122  -3.6792  -2.4175  -1.0857  -0.4805
     0.5010   1.6074   2.3791   2.5047   3.1046   3.6782   4.1873   5.0381

     occupation numbers 
     1.0000   1.0000   1.0000   1.0000   1.0000   1.0000   1.0000   1.0000
     1.0000   1.0000   0.8930   0.4750   0.0000   0.0000   0.0000   0.0000

          k = 0.0024 0.3020 0.2600 (   804 PWs)   bands (ev):

   -17.5446 -15.6913 -14.0019 -12.3548  -2.7666  -2.6967  -1.5280  -0.1000
     0.5777   1.5372   2.3355   2.4102   3.1593   3.7135   4.0651   4.6713

     occupation numbers 
     1.0000   1.0000   1.0000   1.0000   1.0000   1.0000   1.0000   1.0000
     1.0000   1.0000   0.9550   0.8209   0.0000   0.0000   0.0000   0.0000

          k =-0.0047 0.3020-0.5200 (   808 PWs)   bands (ev):

   -17.3473 -15.7535 -14.4217 -12.1983  -2.8127  -2.1055  -1.5793   0.3193
     0.7341   1.5070   2.1911   2.2273   2.6547   3.4263   3.7630   5.0982

     occupation numbers 
     1.0000   1.0000   1.0000   1.0000   1.0000   1.0000   1.0000   1.0000
     1.0000   1.0000   0.9993   0.9976   0.0523   0.0000   0.0000   0.0000

          k = 0.0000 0.6040 0.0000 (   810 PWs)   bands (ev):

   -16.7296 -15.3806 -12.8229 -12.1232  -2.8705  -1.7874  -1.2511  -1.0293
    -0.6687   0.6067   0.7905   1.1495   1.7217   3.0693   4.6065   5.0994

     occupation numbers 
     1.0000   1.0000   1.0000   1.0000   1.0000   1.0000   1.0000   1.0000
     1.0000   1.0000   1.0000   1.0000   1.0000   0.0000   0.0000   0.0000

          k = 0.0024 0.6040 0.2600 (   800 PWs)   bands (ev):

   -16.5988 -15.3982 -13.1372 -12.0762  -2.1449  -1.6767  -1.5362  -1.1545
    -0.7907   0.7019   0.8832   1.2606   1.6130   3.1402   4.4022   4.7711

     occupation numbers 
     1.0000   1.0000   1.0000   1.0000   1.0000   1.0000   1.0000   1.0000
     1.0000   1.0000   1.0000   1.0000   1.0000   0.0000   0.0000   0.0000

          k =-0.0047 0.6040-0.5200 (   808 PWs)   bands (ev):

   -16.4480 -15.4154 -13.4583 -12.0291  -1.8284  -1.5692  -1.2842  -1.1410
    -0.7847   0.4699   1.1110   1.1701   1.5180   3.2290   3.6724   4.9495

     occupation numbers 
     1.0000   1.0000   1.0000   1.0000   1.0000   1.0000   1.0000   1.0000
     1.0000   1.0000   1.0000   1.0000   1.0000   0.0000   0.0000   0.0000

          k = 0.0000-0.9061 0.0000 (   800 PWs)   bands (ev):

   -15.7153 -15.7144 -12.1458 -12.1454  -2.5487  -2.5486  -1.4451  -1.4451
    -0.0329  -0.0326   0.4752   0.4755   1.9455   1.9457   4.9750   4.9762

     occupation numbers 
     1.0000   1.0000   1.0000   1.0000   1.0000   1.0000   1.0000   1.0000
     1.0000   1.0000   1.0000   1.0000   1.0000   1.0000   0.0000   0.0000

          k = 0.0024-0.9061 0.2600 (   792 PWs)   bands (ev):

   -15.6517 -15.6509 -12.2879 -12.2875  -2.2536  -2.2532  -1.5655  -1.5652
     0.1461   0.1465   0.2762   0.2764   2.0897   2.0899   4.6951   4.6963

     occupation numbers 
     1.0000   1.0000   1.0000   1.0000   1.0000   1.0000   1.0000   1.0000
     1.0000   1.0000   1.0000   1.0000   1.0000   1.0000   0.0000   0.0000

          k =-0.0047-0.9061-0.5200 (   796 PWs)   bands (ev):

   -15.5840 -15.5831 -12.4316 -12.4312  -2.2311  -2.2305  -1.0902  -1.0897
    -0.0761  -0.0759   0.0883   0.0886   2.2704   2.2705   4.4472   4.4484

     occupation numbers 
     1.0000   1.0000   1.0000   1.0000   1.0000   1.0000   1.0000   1.0000
     1.0000   1.0000   1.0000   1.0000   0.9912   0.9911   0.0000   0.0000

          k = 0.2518 0.0000 0.1746 (   790 PWs)   bands (ev):

   -17.7599 -16.1289 -13.9046 -13.1009  -3.3804  -2.2713  -1.2120   0.0356
     1.5891   1.9329   2.7188   3.2784   3.5508   3.8395   3.9461   4.5837

     occupation numbers 
     1.0000   1.0000   1.0000   1.0000   1.0000   1.0000   1.0000   1.0000
     1.0000   1.0000   0.0110   0.0000   0.0000   0.0000   0.0000   0.0000

          k = 0.2541 0.0000 0.4347 (   800 PWs)   bands (ev):

   -17.4999 -16.2746 -14.4879 -12.7708  -2.5001  -2.1829  -1.8568   0.5256
     1.5256   2.0670   2.6347   2.8366   3.3820   3.4104   4.0501   4.7678

     occupation numbers 
     1.0000   1.0000   1.0000   1.0000   1.0000   1.0000   1.0000   1.0000
     1.0000   1.0000   0.0786   0.0002   0.0000   0.0000   0.0000   0.0000

          k = 0.2471 0.0000-0.3454 (   802 PWs)   bands (ev):

   -17.5729 -16.3498 -14.3400 -12.5997  -2.8003  -2.2613  -1.9800   0.2239
     1.6854   2.0365   2.6075   3.0095   3.4197   3.4566   4.0825   5.0675

     occupation numbers 
     1.0000   1.0000   1.0000   1.0000   1.0000   1.0000   1.0000   1.0000
     1.0000   1.0000   0.1288   0.0000   0.0000   0.0000   0.0000   0.0000

          k = 0.2494 0.0000-0.0854 (   792 PWs)   bands (ev):

   -17.8167 -16.2157 -13.7621 -12.9257  -3.6622  -2.1852  -1.5216  -0.1563
     1.7120   1.9083   2.6877   3.1479   3.5823   3.9825   4.1557   4.8469

     occupation numbers 
     1.0000   1.0000   1.0000   1.0000   1.0000   1.0000   1.0000   1.0000
     1.0000   1.0000   0.0247   0.0000   0.0000   0.0000   0.0000   0.0000

          k = 0.2518 0.3020 0.1746 (   798 PWs)   bands (ev):

   -17.3988 -15.9142 -13.5949 -12.8609  -3.0911  -2.0042  -1.1470   0.1961
     0.8208   0.8807   2.1717   2.5629   2.6861   3.6311   4.0344   4.6623

     occupation numbers 
     1.0000   1.0000   1.0000   1.0000   1.0000   1.0000   1.0000   1.0000
     1.0000   1.0000   0.9997   0.2520   0.0257   0.0000   0.0000   0.0000

          k = 0.2541 0.3020 0.4347 (   796 PWs)   bands (ev):

   -17.1565 -16.0402 -14.1361 -12.5753  -2.2485  -1.9544  -1.6903   0.6502
     0.7874   0.9655   2.0841   2.5089   2.5103   3.3402   3.6875   4.8047

     occupation numbers 
     1.0000   1.0000   1.0000   1.0000   1.0000   1.0000   1.0000   1.0000
     1.0000   1.0000   1.0000   0.4575   0.4518   0.0000   0.0000   0.0000

          k = 0.2471 0.3020-0.3454 (   805 PWs)   bands (ev):

   -17.2255 -16.1102 -13.9964 -12.4180  -2.5754  -2.0573  -1.7247   0.4306
     0.7884   0.9146   2.1712   2.5251   2.5740   3.5782   3.6515   5.0811

     occupation numbers 
     1.0000   1.0000   1.0000   1.0000   1.0000   1.0000   1.0000   1.0000
     1.0000   1.0000   0.9997   0.3916   0.2167   0.0000   0.0000   0.0000

          k = 0.2494 0.3020-0.0854 (   800 PWs)   bands (ev):

   -17.4532 -15.9935 -13.4602 -12.7004  -3.3525  -1.9577  -1.4255   0.0945
     0.7983   0.8608   2.2516   2.6003   2.6835   3.5279   4.3194   4.9141

     occupation numbers 
     1.0000   1.0000   1.0000   1.0000   1.0000   1.0000   1.0000   1.0000
     1.0000   1.0000   0.9949   0.1452   0.0273   0.0000   0.0000   0.0000

          k = 0.2518 0.6040 0.1746 (   806 PWs)   bands (ev):

   -16.4952 -15.5289 -12.8505 -12.3687  -2.4838  -2.2542  -1.1449  -1.1286
    -0.1880   0.1624   0.7361   1.7071   1.9410   3.2870   4.4253   4.7868

     occupation numbers 
     1.0000   1.0000   1.0000   1.0000   1.0000   1.0000   1.0000   1.0000
     1.0000   1.0000   1.0000   1.0000   1.0000   0.0000   0.0000   0.0000

          k = 0.2541 0.6040 0.4347 (   804 PWs)   bands (ev):

   -16.3137 -15.5850 -13.2513 -12.2383  -2.2796  -1.5584  -1.4177  -1.3288
    -0.1837   0.2406   0.7802   1.6600   2.0012   3.3358   3.8488   4.7782

     occupation numbers 
     1.0000   1.0000   1.0000   1.0000   1.0000   1.0000   1.0000   1.0000
     1.0000   1.0000   1.0000   1.0000   1.0000   0.0000   0.0000   0.0000

          k = 0.2471 0.6040-0.3454 (   803 PWs)   bands (ev):

   -16.3717 -15.6419 -13.1333 -12.1155  -2.4914  -1.6434  -1.5023  -1.4326
    -0.0868   0.2122   0.8605   1.7751   1.8263   3.1971   4.1219   5.0071

     occupation numbers 
     1.0000   1.0000   1.0000   1.0000   1.0000   1.0000   1.0000   1.0000
     1.0000   1.0000   1.0000   1.0000   1.0000   0.0000   0.0000   0.0000

          k = 0.2494 0.6040-0.0854 (   806 PWs)   bands (ev):

   -16.5437 -15.5890 -12.7362 -12.2449  -2.6595  -2.2957  -1.4410  -1.2696
     0.0565   0.2120   0.8603   1.7335   1.8315   3.1343   4.6411   4.9985

     occupation numbers 
     1.0000   1.0000   1.0000   1.0000   1.0000   1.0000   1.0000   1.0000
     1.0000   1.0000   1.0000   1.0000   1.0000   0.0000   0.0000   0.0000

          k = 0.2518-0.9061 0.1746 (   808 PWs)   bands (ev):

   -15.6467 -15.6458 -12.2556 -12.2552  -2.8102  -2.8100  -1.4775  -1.4772
    -0.2698  -0.2697   0.8402   0.8404   2.6295   2.6297   4.7379   4.7390

     occupation numbers 
     1.0000   1.0000   1.0000   1.0000   1.0000   1.0000   1.0000   1.0000
     1.0000   1.0000   1.0000   1.0000   0.0868   0.0865   0.0000   0.0000

          k = 0.2541-0.9061 0.4347 (   802 PWs)   bands (ev):

   -15.5792 -15.5783 -12.3996 -12.3992  -2.6824  -2.6820  -1.4152  -1.4148
    -0.1790  -0.1788   0.7662   0.7664   2.7201   2.7202   4.4561   4.4573

     occupation numbers 
     1.0000   1.0000   1.0000   1.0000   1.0000   1.0000   1.0000   1.0000
     1.0000   1.0000   1.0000   1.0000   0.0107   0.0106   0.0000   0.0000

          k = 0.2471-0.9061-0.3454 (   804 PWs)   bands (ev):

   -15.6285 -15.6276 -12.2981 -12.2977  -2.8094  -2.8090  -1.4077  -1.4072
    -0.2594  -0.2593   0.9069   0.9072   2.5615   2.5616   4.6722   4.6734

     occupation numbers 
     1.0000   1.0000   1.0000   1.0000   1.0000   1.0000   1.0000   1.0000
     1.0000   1.0000   1.0000   1.0000   0.2569   0.2563   0.0000   0.0000

          k = 0.2494-0.9061-0.0854 (   818 PWs)   bands (ev):

   -15.6928 -15.6919 -12.1557 -12.1553  -2.8760  -2.8758  -1.6657  -1.6654
    -0.1824  -0.1823   1.0038   1.0041   2.4425   2.4427   4.9188   4.9200

     occupation numbers 
     1.0000   1.0000   1.0000   1.0000   1.0000   1.0000   1.0000   1.0000
     1.0000   1.0000   1.0000   1.0000   0.7203   0.7196   0.0000   0.0000

          k =-0.5036 0.0000-0.3493 (   794 PWs)   bands (ev):

   -16.9441 -16.9432 -13.6882 -13.6878  -2.0606  -2.0601  -0.5115  -0.5110
     1.8340   1.8342   2.3403   2.3407   3.7116   3.7118   3.9257   3.9269

     occupation numbers 
     1.0000   1.0000   1.0000   1.0000   1.0000   1.0000   1.0000   1.0000
     1.0000   1.0000   0.9501   0.9496   0.0000   0.0000   0.0000   0.0000

          k =-0.5012 0.0000-0.0893 (   799 PWs)   bands (ev):

   -17.1489 -16.8639 -13.8617 -13.2065  -3.1768  -1.4648  -0.3879  -0.3210
     1.4782   1.7615   2.2412   2.3928   3.3243   3.6476   3.8369   5.0484

     occupation numbers 
     1.0000   1.0000   1.0000   1.0000   1.0000   1.0000   1.0000   1.0000
     1.0000   1.0000   0.9963   0.8644   0.0000   0.0000   0.0000   0.0000

          k =-0.5083 0.0000-0.8693 (   794 PWs)   bands (ev):

   -17.0852 -17.0843 -13.3762 -13.3759  -2.7416  -2.7411  -0.2078  -0.2073
     1.4946   1.4948   2.2846   2.2850   3.7806   3.7807   4.5242   4.5253

     occupation numbers 
     1.0000   1.0000   1.0000   1.0000   1.0000   1.0000   1.0000   1.0000
     1.0000   1.0000   0.9869   0.9868   0.0000   0.0000   0.0000   0.0000

          k =-0.5036 0.3020-0.3493 (   792 PWs)   bands (ev):

   -16.6452 -16.6444 -13.4002 -13.3998  -1.8969  -1.8964  -0.6754  -0.6751
     1.4119   1.4120   1.6717   1.6718   3.1570   3.1571   4.0588   4.0600

     occupation numbers 
     1.0000   1.0000   1.0000   1.0000   1.0000   1.0000   1.0000   1.0000
     1.0000   1.0000   1.0000   1.0000   0.0000   0.0000   0.0000   0.0000

          k =-0.5012 0.3020-0.0893 (   795 PWs)   bands (ev):

   -16.8346 -16.5751 -13.5528 -12.9588  -2.9226  -1.3583  -0.5759  -0.5582
     1.2056   1.4970   1.5803   1.6102   3.0548   3.1732   3.5991   5.0745

     occupation numbers 
     1.0000   1.0000   1.0000   1.0000   1.0000   1.0000   1.0000   1.0000
     1.0000   1.0000   1.0000   1.0000   0.0000   0.0000   0.0000   0.0000

          k =-0.5083 0.3020-0.8693 (   794 PWs)   bands (ev):

   -16.7780 -16.7772 -13.1083 -13.1080  -2.5161  -2.5156  -0.5173  -0.5170
     1.3960   1.3962   1.5568   1.5570   3.1063   3.1064   4.6199   4.6211

     occupation numbers 
     1.0000   1.0000   1.0000   1.0000   1.0000   1.0000   1.0000   1.0000
     1.0000   1.0000   1.0000   1.0000   0.0000   0.0000   0.0000   0.0000

          k =-0.5036 0.6040-0.3493 (   794 PWs)   bands (ev):

   -15.9674 -15.9665 -12.7465 -12.7461  -2.0955  -2.0952  -1.5925  -1.5922
     0.2990   0.2992   1.1816   1.1817   3.0045   3.0046   4.3230   4.3242

     occupation numbers 
     1.0000   1.0000   1.0000   1.0000   1.0000   1.0000   1.0000   1.0000
     1.0000   1.0000   1.0000   1.0000   0.0000   0.0000   0.0000   0.0000

          k =-0.5012 0.6040-0.0893 (   800 PWs)   bands (ev):

   -16.1050 -15.9355 -12.8193 -12.4354  -2.6321  -2.1984  -1.5742  -1.1585
     0.1507   0.1574   1.2613   1.2752   2.8838   2.8886   4.1347   5.0321

     occupation numbers 
     1.0000   1.0000   1.0000   1.0000   1.0000   1.0000   1.0000   1.0000
     1.0000   1.0000   1.0000   1.0000   0.0000   0.0000   0.0000   0.0000

          k =-0.5083 0.6040-0.8693 (   808 PWs)   bands (ev):

   -16.0783 -16.0774 -12.5078 -12.5074  -2.3204  -2.3200  -1.8509  -1.8506
     0.3502   0.3502   1.3766   1.3768   2.7432   2.7434   4.7865   4.7877

     occupation numbers 
     1.0000   1.0000   1.0000   1.0000   1.0000   1.0000   1.0000   1.0000
     1.0000   1.0000   1.0000   1.0000   0.0055   0.0055   0.0000   0.0000

          k =-0.5036-0.9061-0.3493 (   812 PWs)   bands (ev):

   -15.5745 -15.5736 -12.3673 -12.3668  -3.0107  -3.0103  -1.6949  -1.6946
    -0.2535  -0.2532   1.3236   1.3237   3.1076   3.1077   4.4552   4.4564

     occupation numbers 
     1.0000   1.0000   1.0000   1.0000   1.0000   1.0000   1.0000   1.0000
     1.0000   1.0000   1.0000   1.0000   0.0000   0.0000   0.0000   0.0000

          k =-0.5012-0.9061-0.0893 (   808 PWs)   bands (ev):

   -15.6234 -15.6225 -12.2656 -12.2652  -3.1872  -3.1869  -1.3523  -1.3519
    -0.6409  -0.6408   1.4206   1.4208   2.9835   2.9836   4.7164   4.7176

     occupation numbers 
     1.0000   1.0000   1.0000   1.0000   1.0000   1.0000   1.0000   1.0000
     1.0000   1.0000   1.0000   1.0000   0.0000   0.0000   0.0000   0.0000

          k =-0.5083-0.9061-0.8693 (   804 PWs)   bands (ev):

   -15.6697 -15.6688 -12.1658 -12.1654  -3.1801  -3.1798  -1.7450  -1.7445
    -0.3838  -0.3837   1.5343   1.5346   2.8415   2.8416   4.8624   4.8636

     occupation numbers 
     1.0000   1.0000   1.0000   1.0000   1.0000   1.0000   1.0000   1.0000
     1.0000   1.0000   1.0000   1.0000   0.0002   0.0002   0.0000   0.0000

     the Fermi energy is     2.4986 ev

!    total energy              =    -127.19584380 Ry
     Harris-Foulkes estimate   =    -127.19584324 Ry
     estimated scf accuracy    <       0.00000056 Ry

     The total energy is the sum of the following terms:

     one-electron contribution =     -28.91846918 Ry
     hartree contribution      =      27.09839525 Ry
     xc contribution           =     -26.37470276 Ry
     ewald contribution        =     -98.99847277 Ry
     smearing contrib. (-TS)   =      -0.00259434 Ry

     convergence has been achieved in   9 iterations

     Forces acting on atoms (cartesian axes, Ry/au):

     atom    1 type  1   force =     0.03081590   -0.00000000   -0.25379816
     atom    2 type  1   force =     0.03080667    0.00000000   -0.25370177
     atom    3 type  1   force =    -0.03080667    0.00000000    0.25370177
     atom    4 type  1   force =    -0.03081590   -0.00000000    0.25379816
     The non-local contrib.  to forces
     atom    1 type  1   force =     0.15516221    0.00000000   -1.36726871
     atom    2 type  1   force =     0.15514798    0.00000000   -1.36684093
     atom    3 type  1   force =    -0.15514798    0.00000000    1.36684093
     atom    4 type  1   force =    -0.15516221    0.00000000    1.36726871
     The ionic contribution  to forces
     atom    1 type  1   force =    -0.14553951   -0.00000000    4.83312037
     atom    2 type  1   force =    -0.14538281    0.00000000    4.83203550
     atom    3 type  1   force =     0.14538281    0.00000000   -4.83203550
     atom    4 type  1   force =     0.14553951   -0.00000000   -4.83312037
     The local contribution  to forces
     atom    1 type  1   force =     0.02116347    0.00000000   -3.71816231
     atom    2 type  1   force =     0.02104642    0.00000000   -3.71749095
     atom    3 type  1   force =    -0.02104642    0.00000000    3.71749095
     atom    4 type  1   force =    -0.02116347    0.00000000    3.71816231
     The core correction contribution to forces
     atom    1 type  1   force =     0.00000000    0.00000000    0.00000000
     atom    2 type  1   force =     0.00000000    0.00000000    0.00000000
     atom    3 type  1   force =     0.00000000    0.00000000    0.00000000
     atom    4 type  1   force =     0.00000000    0.00000000    0.00000000
     The Hubbard contrib.    to forces
     atom    1 type  1   force =     0.00000000    0.00000000    0.00000000
     atom    2 type  1   force =     0.00000000    0.00000000    0.00000000
     atom    3 type  1   force =     0.00000000    0.00000000    0.00000000
     atom    4 type  1   force =     0.00000000    0.00000000    0.00000000
     The SCF correction term to forces
     atom    1 type  1   force =     0.00002973    0.00000000   -0.00148750
     atom    2 type  1   force =    -0.00000492    0.00000000   -0.00140538
     atom    3 type  1   force =     0.00000492    0.00000000    0.00140538
     atom    4 type  1   force =    -0.00002973    0.00000000    0.00148750

     Total force =     0.511227     Total SCF correction =     0.002894


     Computing stress (Cartesian axis) and pressure

          total   stress  (Ry/bohr**3)                   (kbar)     P= -244.57
   0.00061794   0.00000000   0.00071783         90.90      0.00    105.60
   0.00000000   0.00057634   0.00000000          0.00     84.78      0.00
   0.00071783   0.00000000  -0.00618186        105.60      0.00   -909.38

     kinetic stress (kbar)  20140.27      0.00    389.10
                                0.00  19882.65      0.00
                              389.10      0.00  17050.12

     local   stress (kbar) -13177.15      0.00    672.14
                                0.00 -14337.85     -0.00
                              672.14     -0.00 -11127.95

     nonloc. stress (kbar)  11892.01      0.00    150.12
                                0.00  11784.69      0.00
                              150.12      0.00  10728.11

     hartree stress (kbar)   5244.75      0.00   -292.06
                                0.00   5721.55      0.00
                             -292.06      0.00   4022.22

     exc-cor stress (kbar)  -4605.67      0.00     -2.69
                                0.00  -4602.65      0.00
                               -2.69      0.00  -4591.28

     corecor stress (kbar)      0.00      0.00      0.00
                                0.00      0.00      0.00
                                0.00      0.00      0.00

     ewald   stress (kbar) -19403.31     -0.00   -811.01
                               -0.00 -18363.60      0.00
                             -811.01      0.00 -16990.59

     hubbard stress (kbar)      0.00      0.00      0.00
                                0.00      0.00      0.00
                                0.00      0.00      0.00

     london  stress (kbar)      0.00      0.00      0.00
                                0.00      0.00      0.00
                                0.00      0.00      0.00

     DFT-D3  stress (kbar)      0.00      0.00      0.00
                                0.00      0.00      0.00
                                0.00      0.00      0.00

     XDM     stress (kbar)      0.00      0.00      0.00
                                0.00      0.00      0.00
                                0.00      0.00      0.00

     dft-nl  stress (kbar)      0.00      0.00      0.00
                                0.00      0.00      0.00
                                0.00      0.00      0.00

     TS-vdW  stress (kbar)      0.00      0.00      0.00
                                0.00      0.00      0.00
                                0.00      0.00      0.00



     number of scf cycles    =   2
     number of bfgs steps    =   1

     enthalpy old            =    -127.2107498514 Ry
     enthalpy new            =    -126.9246522666 Ry

     CASE: enthalpy_new > enthalpy_old

     new trust radius        =       0.2007789571 bohr
     new conv_thr            =       0.0000010000 Ry

     new unit-cell volume =    245.21905 a.u.^3 (    36.33771 Ang^3 )
     density =      2.92452 g/cm^3

CELL_PARAMETERS (alat=  7.94577871)
   0.999655124   0.000000000  -0.003928878
   0.000000000   0.552795343   0.000000000
  -0.667204066   0.000000000   0.887188238

ATOMIC_POSITIONS (crystal)
O        0.104857578  -0.000000000   0.178541265
O        0.604861615   0.500000000   0.178548694
O        0.395138385   0.500000000   0.821451306
O        0.895142422  -0.000000000   0.821458735



     Writing output data file O2alpha.save/
     NEW-OLD atomic charge density approx. for the potential
     extrapolated charge   21.97028, renormalised to   24.00000

     total cpu time spent up to now is        9.4 secs

     Self-consistent Calculation

     iteration #  1     ecut=    35.00 Ry     beta= 0.40
     Davidson diagonalization with overlap
     ethr =  1.00E-06,  avg # of iterations =  5.0

     total cpu time spent up to now is       10.2 secs

     total energy              =    -127.33168312 Ry
     Harris-Foulkes estimate   =    -130.18947612 Ry
     estimated scf accuracy    <       0.37835207 Ry

     iteration #  2     ecut=    35.00 Ry     beta= 0.40
     Davidson diagonalization with overlap
     ethr =  1.58E-03,  avg # of iterations =  3.0

     total cpu time spent up to now is       10.7 secs

     total energy              =    -127.61050253 Ry
     Harris-Foulkes estimate   =    -127.66439969 Ry
     estimated scf accuracy    <       0.14945728 Ry

     iteration #  3     ecut=    35.00 Ry     beta= 0.40
     Davidson diagonalization with overlap
     ethr =  6.23E-04,  avg # of iterations =  1.0

     total cpu time spent up to now is       11.1 secs

     total energy              =    -127.59417631 Ry
     Harris-Foulkes estimate   =    -127.61801239 Ry
     estimated scf accuracy    <       0.03833420 Ry

     iteration #  4     ecut=    35.00 Ry     beta= 0.40
     Davidson diagonalization with overlap
     ethr =  1.60E-04,  avg # of iterations =  2.0

     total cpu time spent up to now is       11.5 secs

     total energy              =    -127.60530009 Ry
     Harris-Foulkes estimate   =    -127.60582164 Ry
     estimated scf accuracy    <       0.00249787 Ry

     iteration #  5     ecut=    35.00 Ry     beta= 0.40
     Davidson diagonalization with overlap
     ethr =  1.04E-05,  avg # of iterations =  1.1

     total cpu time spent up to now is       11.8 secs

     total energy              =    -127.60527884 Ry
     Harris-Foulkes estimate   =    -127.60557454 Ry
     estimated scf accuracy    <       0.00086362 Ry

     iteration #  6     ecut=    35.00 Ry     beta= 0.40
     Davidson diagonalization with overlap
     ethr =  3.60E-06,  avg # of iterations =  2.0

     total cpu time spent up to now is       12.2 secs

     total energy              =    -127.60535103 Ry
     Harris-Foulkes estimate   =    -127.60575659 Ry
     estimated scf accuracy    <       0.00069214 Ry

     iteration #  7     ecut=    35.00 Ry     beta= 0.40
     Davidson diagonalization with overlap
     ethr =  2.88E-06,  avg # of iterations =  2.0

     total cpu time spent up to now is       12.6 secs

     total energy              =    -127.60552337 Ry
     Harris-Foulkes estimate   =    -127.60552286 Ry
     estimated scf accuracy    <       0.00001323 Ry

     iteration #  8     ecut=    35.00 Ry     beta= 0.40
     Davidson diagonalization with overlap
     ethr =  5.51E-08,  avg # of iterations =  2.0

     total cpu time spent up to now is       13.0 secs

     total energy              =    -127.60552585 Ry
     Harris-Foulkes estimate   =    -127.60552502 Ry
     estimated scf accuracy    <       0.00000221 Ry

     iteration #  9     ecut=    35.00 Ry     beta= 0.40
     Davidson diagonalization with overlap
     ethr =  9.22E-09,  avg # of iterations =  2.0

     total cpu time spent up to now is       13.4 secs

     End of self-consistent calculation

          k = 0.0000 0.0000 0.0000 (   803 PWs)   bands (ev):

   -21.0699 -19.3895 -11.1245 -10.0503  -4.3195  -3.9128  -1.4581   0.6551
     1.3298   1.4465   1.7232   5.5061   5.7655   6.0276  10.5468  11.9347

     occupation numbers 
     1.0000   1.0000   1.0000   1.0000   1.0000   1.0000   1.0000   1.0000
     1.0000   1.0000   1.0000   0.0000   0.0000   0.0000   0.0000   0.0000

          k = 0.0011 0.0000 0.2826 (   804 PWs)   bands (ev):

   -21.0015 -19.4131 -11.6853  -9.8292  -4.1049  -3.2313  -1.9406   0.7179
     1.4255   1.6793   1.6905   5.3867   5.7977   6.0868  10.2565  11.3031

     occupation numbers 
     1.0000   1.0000   1.0000   1.0000   1.0000   1.0000   1.0000   1.0000
     1.0000   1.0000   1.0000   0.0000   0.0000   0.0000   0.0000   0.0000

          k =-0.0022 0.0000-0.5652 (   798 PWs)   bands (ev):

   -20.9299 -19.4363 -12.1608  -9.5900  -4.2300  -2.5158  -2.1026   0.7837
     1.4009   1.6584   2.1068   5.2643   5.8333   6.1447   8.7153  11.9920

     occupation numbers 
     1.0000   1.0000   1.0000   1.0000   1.0000   1.0000   1.0000   1.0000
     1.0000   1.0000   1.0000   0.0000   0.0000   0.0000   0.0000   0.0000

          k = 0.0000 0.3015 0.0000 (   794 PWs)   bands (ev):

   -20.7584 -19.2497 -10.8154  -9.8370  -4.0804  -3.4922  -1.4379  -0.5944
     0.5664   1.2360   1.7169   4.6095   5.1329   5.6183  10.7689  11.9823

     occupation numbers 
     1.0000   1.0000   1.0000   1.0000   1.0000   1.0000   1.0000   1.0000
     1.0000   1.0000   1.0000   0.0238   0.0000   0.0000   0.0000   0.0000

          k = 0.0011 0.3015 0.2826 (   804 PWs)   bands (ev):

   -20.6953 -19.2688 -11.3371  -9.6511  -3.6763  -3.0744  -1.8593  -0.4924
     0.5167   1.2110   2.0373   4.4768   5.1905   5.6608  10.4575  11.3887

     occupation numbers 
     1.0000   1.0000   1.0000   1.0000   1.0000   1.0000   1.0000   1.0000
     1.0000   1.0000   1.0000   0.2735   0.0000   0.0000   0.0000   0.0000

          k =-0.0022 0.3015-0.5652 (   808 PWs)   bands (ev):

   -20.6300 -19.2878 -11.7827  -9.4524  -3.7899  -2.3699  -2.0369  -0.3821
     0.4734   1.1803   2.4289   4.3133   5.2120   5.7057   9.1067  11.9762

     occupation numbers 
     1.0000   1.0000   1.0000   1.0000   1.0000   1.0000   1.0000   1.0000
     1.0000   1.0000   1.0000   0.8637   0.0000   0.0000   0.0000   0.0000

          k = 0.0000 0.6030 0.0000 (   810 PWs)   bands (ev):

   -19.9882 -19.0420 -10.0610  -9.4236  -3.6551  -2.7042  -2.3488  -1.4804
    -1.3127   0.4821   2.7341   2.9763   3.3785   5.0633  11.2881  12.0018

     occupation numbers 
     1.0000   1.0000   1.0000   1.0000   1.0000   1.0000   1.0000   1.0000
     1.0000   1.0000   1.0000   1.0000   1.0000   0.0000   0.0000   0.0000

          k = 0.0011 0.6030 0.2826 (   800 PWs)   bands (ev):

   -19.9414 -19.0467 -10.4551  -9.3636  -2.9520  -2.6368  -2.4914  -1.6233
    -1.3420   0.4464   2.8057   3.0380   3.4181   5.1451  10.9357  11.5068

     occupation numbers 
     1.0000   1.0000   1.0000   1.0000   1.0000   1.0000   1.0000   1.0000
     1.0000   1.0000   1.0000   1.0000   1.0000   0.0000   0.0000   0.0000

          k =-0.0022 0.6030-0.5652 (   808 PWs)   bands (ev):

   -19.8937 -19.0511 -10.8013  -9.3014  -2.6586  -2.5872  -2.3507  -1.6893
    -1.2225   0.3945   2.6570   3.2763   3.3740   5.2308  10.0511  11.7710

     occupation numbers 
     1.0000   1.0000   1.0000   1.0000   1.0000   1.0000   1.0000   1.0000
     1.0000   1.0000   1.0000   1.0000   1.0000   0.0000   0.0000   0.0000

          k = 0.0000-0.9045 0.0000 (   800 PWs)   bands (ev):

   -19.2493 -19.2479  -9.4108  -9.4106  -3.6506  -3.6501  -1.7211  -1.7211
    -0.8469  -0.8462   2.3553   2.3555   4.0142   4.0143  11.7817  11.7829

     occupation numbers 
     1.0000   1.0000   1.0000   1.0000   1.0000   1.0000   1.0000   1.0000
     1.0000   1.0000   1.0000   1.0000   1.0000   1.0000   0.0000   0.0000

          k = 0.0011-0.9045 0.2826 (   792 PWs)   bands (ev):

   -19.2285 -19.2271  -9.5813  -9.5811  -3.4024  -3.4018  -1.7289  -1.7287
    -0.8867  -0.8861   2.3253   2.3254   4.1744   4.1745  11.3765  11.3777

     occupation numbers 
     1.0000   1.0000   1.0000   1.0000   1.0000   1.0000   1.0000   1.0000
     1.0000   1.0000   1.0000   1.0000   0.9945   0.9945   0.0000   0.0000

          k =-0.0022-0.9045-0.5652 (   796 PWs)   bands (ev):

   -19.2078 -19.2064  -9.7397  -9.7395  -3.2664  -3.2656  -1.4917  -1.4914
    -0.9991  -0.9985   2.1802   2.1803   4.3453   4.3454  11.1022  11.1034

     occupation numbers 
     1.0000   1.0000   1.0000   1.0000   1.0000   1.0000   1.0000   1.0000
     1.0000   1.0000   1.0000   1.0000   0.7777   0.7775   0.0000   0.0000

          k = 0.2508 0.0000 0.1886 (   790 PWs)   bands (ev):

   -20.8336 -19.6478 -11.1853 -10.4318  -3.6962  -3.3683  -1.5171   0.5627
     0.8178   1.5737   2.2059   5.2774   5.5488   5.9163  10.3723  11.2690

     occupation numbers 
     1.0000   1.0000   1.0000   1.0000   1.0000   1.0000   1.0000   1.0000
     1.0000   1.0000   1.0000   0.0000   0.0000   0.0000   0.0000   0.0000

          k = 0.2519 0.0000 0.4713 (   800 PWs)   bands (ev):

   -20.7422 -19.6928 -11.8473 -10.0492  -3.6635  -2.2492  -2.2472   0.5391
     0.9026   1.5203   2.6469   5.2664   5.3894   6.0118   9.2134  11.5251

     occupation numbers 
     1.0000   1.0000   1.0000   1.0000   1.0000   1.0000   1.0000   1.0000
     1.0000   1.0000   1.0000   0.0000   0.0000   0.0000   0.0000   0.0000

          k = 0.2486 0.0000-0.3766 (   802 PWs)   bands (ev):

   -20.7651 -19.7185 -11.7068  -9.8499  -3.8583  -2.5452  -2.2449   0.5915
     0.8857   1.5030   2.3890   5.1235   5.4211   6.0429   9.5734  11.9351

     occupation numbers 
     1.0000   1.0000   1.0000   1.0000   1.0000   1.0000   1.0000   1.0000
     1.0000   1.0000   1.0000   0.0000   0.0000   0.0000   0.0000   0.0000

          k = 0.2497 0.0000-0.0940 (   792 PWs)   bands (ev):

   -20.8554 -19.6739 -11.0114 -10.2597  -3.9910  -3.4146  -1.6818   0.6204
     0.8019   1.5556   2.0095   5.1364   5.5792   5.9471  10.6768  11.6503

     occupation numbers 
     1.0000   1.0000   1.0000   1.0000   1.0000   1.0000   1.0000   1.0000
     1.0000   1.0000   1.0000   0.0000   0.0000   0.0000   0.0000   0.0000

          k = 0.2508 0.3015 0.1886 (   798 PWs)   bands (ev):

   -20.5413 -19.4755 -10.8749 -10.1863  -3.5265  -3.1144  -1.4649  -0.2960
    -0.0712   1.0517   2.4079   4.6269   4.7500   5.5980  10.5918  11.3706

     occupation numbers 
     1.0000   1.0000   1.0000   1.0000   1.0000   1.0000   1.0000   1.0000
     1.0000   1.0000   1.0000   0.0153   0.0003   0.0000   0.0000   0.0000

          k = 0.2519 0.3015 0.4713 (   796 PWs)   bands (ev):

   -20.4579 -19.5136 -11.4899  -9.8537  -3.4182  -2.2039  -2.0705  -0.1748
    -0.1378   1.0204   2.7931   4.5792   4.6692   5.6482   9.5370  11.5744

     occupation numbers 
     1.0000   1.0000   1.0000   1.0000   1.0000   1.0000   1.0000   1.0000
     1.0000   1.0000   1.0000   0.0478   0.0046   0.0000   0.0000   0.0000

          k = 0.2486 0.3015-0.3766 (   805 PWs)   bands (ev):

   -20.4794 -19.5372 -11.3564  -9.6719  -3.6289  -2.4602  -2.0322  -0.1932
    -0.1842   1.0714   2.5981   4.5835   4.6760   5.5649   9.8566  11.9353

     occupation numbers 
     1.0000   1.0000   1.0000   1.0000   1.0000   1.0000   1.0000   1.0000
     1.0000   1.0000   1.0000   0.0436   0.0038   0.0000   0.0000   0.0000

          k = 0.2497 0.3015-0.0940 (   800 PWs)   bands (ev):

   -20.5618 -19.4993 -10.7116 -10.0267  -3.7895  -3.1880  -1.5937  -0.3037
    -0.1078   1.1020   2.2669   4.6459   4.7575   5.5052  10.8582  11.7110

     occupation numbers 
     1.0000   1.0000   1.0000   1.0000   1.0000   1.0000   1.0000   1.0000
     1.0000   1.0000   1.0000   0.0092   0.0002   0.0000   0.0000   0.0000

          k = 0.2508 0.6030 0.1886 (   806 PWs)   bands (ev):

   -19.8368 -19.1666 -10.1291  -9.6759  -3.4366  -3.2733  -1.5744  -1.5206
    -1.1669   0.5775   2.2553   2.8945   4.0190   5.2680  11.0907  11.5443

     occupation numbers 
     1.0000   1.0000   1.0000   1.0000   1.0000   1.0000   1.0000   1.0000
     1.0000   1.0000   1.0000   1.0000   1.0000   0.0000   0.0000   0.0000

          k = 0.2519 0.6030 0.4713 (   804 PWs)   bands (ev):

   -19.7780 -19.1826 -10.5858  -9.5204  -3.3939  -2.7588  -1.7154  -1.4113
    -1.2305   0.5449   2.2832   2.9496   4.1078   5.3265  10.3258  11.5564

     occupation numbers 
     1.0000   1.0000   1.0000   1.0000   1.0000   1.0000   1.0000   1.0000
     1.0000   1.0000   1.0000   1.0000   0.9994   0.0000   0.0000   0.0000

          k = 0.2486 0.6030-0.3766 (   803 PWs)   bands (ev):

   -19.7958 -19.2012 -10.4701  -9.3827  -3.5346  -2.8268  -1.8429  -1.6286
    -1.1134   0.6216   2.3592   3.0599   3.9183   5.1895  10.5599  11.8074

     occupation numbers 
     1.0000   1.0000   1.0000   1.0000   1.0000   1.0000   1.0000   1.0000
     1.0000   1.0000   1.0000   1.0000   1.0000   0.0000   0.0000   0.0000

          k = 0.2497 0.6030-0.0940 (   806 PWs)   bands (ev):

   -19.8544 -19.1850  -9.9942  -9.5476  -3.5630  -3.3337  -1.8029  -1.7466
    -1.0011   0.6552   2.3808   3.0218   3.8324   5.1291  11.2779  11.7808

     occupation numbers 
     1.0000   1.0000   1.0000   1.0000   1.0000   1.0000   1.0000   1.0000
     1.0000   1.0000   1.0000   1.0000   1.0000   0.0000   0.0000   0.0000

          k = 0.2508-0.9045 0.1886 (   808 PWs)   bands (ev):

   -19.2237 -19.2223  -9.5403  -9.5402  -3.8824  -3.8819  -1.7077  -1.7075
    -0.2654  -0.2650   1.8526   1.8527   4.6554   4.6555  11.4949  11.4961

     occupation numbers 
     1.0000   1.0000   1.0000   1.0000   1.0000   1.0000   1.0000   1.0000
     1.0000   1.0000   1.0000   1.0000   0.0070   0.0070   0.0000   0.0000

          k = 0.2519-0.9045 0.4713 (   802 PWs)   bands (ev):

   -19.2029 -19.2015  -9.7025  -9.7023  -3.7345  -3.7339  -1.5889  -1.5886
    -0.3226  -0.3222   1.8451   1.8452   4.7705   4.7706  11.1445  11.1457

     occupation numbers 
     1.0000   1.0000   1.0000   1.0000   1.0000   1.0000   1.0000   1.0000
     1.0000   1.0000   1.0000   1.0000   0.0001   0.0001   0.0000   0.0000

          k = 0.2486-0.9045-0.3766 (   804 PWs)   bands (ev):

   -19.2185 -19.2171  -9.5964  -9.5963  -3.7918  -3.7912  -1.7868  -1.7864
    -0.2135  -0.2131   1.9599   1.9600   4.6085   4.6086  11.3320  11.3332

     occupation numbers 
     1.0000   1.0000   1.0000   1.0000   1.0000   1.0000   1.0000   1.0000
     1.0000   1.0000   1.0000   1.0000   0.0244   0.0243   0.0000   0.0000

          k = 0.2497-0.9045-0.0940 (   818 PWs)   bands (ev):

   -19.2393 -19.2380  -9.4292  -9.4290  -3.9180  -3.9175  -1.9587  -1.9585
    -0.1535  -0.1531   2.0164   2.0165   4.4856   4.4857  11.6532  11.6544

     occupation numbers 
     1.0000   1.0000   1.0000   1.0000   1.0000   1.0000   1.0000   1.0000
     1.0000   1.0000   1.0000   1.0000   0.2440   0.2436   0.0000   0.0000

          k =-0.5017 0.0000-0.3773 (   794 PWs)   bands (ev):

   -20.2517 -20.2504 -11.0183 -11.0181  -2.6982  -2.6980  -1.1937  -1.1932
     1.2016   1.2024   3.9461   3.9462   5.6964   5.6965  10.3770  10.3781

     occupation numbers 
     1.0000   1.0000   1.0000   1.0000   1.0000   1.0000   1.0000   1.0000
     1.0000   1.0000   1.0000   1.0000   0.0000   0.0000   0.0000   0.0000

          k =-0.5005 0.0000-0.0946 (   799 PWs)   bands (ev):

   -20.3237 -20.2255 -11.2176 -10.4402  -3.7683  -2.2221  -1.1845  -1.0345
     1.1371   1.2345   3.6348   3.8804   5.6376   5.8179   9.6324  11.9678

     occupation numbers 
     1.0000   1.0000   1.0000   1.0000   1.0000   1.0000   1.0000   1.0000
     1.0000   1.0000   1.0000   1.0000   0.0000   0.0000   0.0000   0.0000

          k =-0.5039 0.0000-0.9425 (   794 PWs)   bands (ev):

[...]
     1.0000   1.0000   1.0000   1.0000   0.8242   0.8241   0.0000   0.0000

          k = 0.2533 0.0000 0.2032 (   793 PWs)   bands (ev):

   -22.3196 -21.3003  -9.6981  -8.9921  -3.6854  -3.4168  -1.1116   0.2615
     0.4461   1.1819   3.6557   6.7022   7.0000   7.3479  14.4282  15.1480

     occupation numbers 
     1.0000   1.0000   1.0000   1.0000   1.0000   1.0000   1.0000   1.0000
     1.0000   1.0000   1.0000   0.0000   0.0000   0.0000   0.0000   0.0000

          k = 0.2571 0.0000 0.5037 (   798 PWs)   bands (ev):

   -22.2396 -21.3301 -10.5735  -8.6331  -3.8294  -1.7956  -1.7036   0.2261
     0.5420   1.1356   3.9300   6.7800   6.7838   7.4465  12.8059  15.1009

     occupation numbers 
     1.0000   1.0000   1.0000   1.0000   1.0000   1.0000   1.0000   1.0000
     1.0000   1.0000   1.0000   0.0000   0.0000   0.0000   0.0000   0.0000

          k = 0.2455 0.0000-0.3976 (   795 PWs)   bands (ev):

   -22.2637 -21.3567 -10.3380  -8.2389  -4.1784  -2.2757  -1.8073   0.2784
     0.5173   1.1086   3.6509   6.6687   6.8420   7.5061  13.4520  16.1898

     occupation numbers 
     1.0000   1.0000   1.0000   1.0000   1.0000   1.0000   1.0000   1.0000
     1.0000   1.0000   1.0000   0.0000   0.0000   0.0000   0.0000   0.0000

          k = 0.2494 0.0000-0.0972 (   800 PWs)   bands (ev):

   -22.3429 -21.3272  -9.3611  -8.6684  -3.9536  -3.8348  -1.4316   0.3265
     0.4215   1.1549   3.5067   6.5681   7.0561   7.4073  15.0903  16.0830

     occupation numbers 
     1.0000   1.0000   1.0000   1.0000   1.0000   1.0000   1.0000   1.0000
     1.0000   1.0000   1.0000   0.0000   0.0000   0.0000   0.0000   0.0000

          k = 0.2533 0.3028 0.2032 (   794 PWs)   bands (ev):

   -22.0580 -21.1469  -9.3801  -8.7321  -3.4263  -3.3313  -1.1401  -0.5438
    -0.2335   0.6478   3.8180   5.9925   6.2159   7.0758  14.6800  15.2946

     occupation numbers 
     1.0000   1.0000   1.0000   1.0000   1.0000   1.0000   1.0000   1.0000
     1.0000   1.0000   1.0000   0.0383   0.0000   0.0000   0.0000   0.0000

          k = 0.2571 0.3028 0.5037 (   795 PWs)   bands (ev):

   -21.9851 -21.1716 -10.1991  -8.4288  -3.5815  -1.9326  -1.6090  -0.4172
    -0.1994   0.6090   4.0594   5.9675   6.0722   7.1674  13.1688  15.2401

     occupation numbers 
     1.0000   1.0000   1.0000   1.0000   1.0000   1.0000   1.0000   1.0000
     1.0000   1.0000   1.0000   0.0654   0.0047   0.0000   0.0000   0.0000

          k = 0.2455 0.3028-0.3976 (   804 PWs)   bands (ev):

   -22.0079 -21.1962  -9.9702  -8.0629  -3.9456  -2.3223  -1.6306  -0.4999
    -0.3158   0.6651   3.8942   5.9740   6.2022   7.0339  13.7670  16.2182

     occupation numbers 
     1.0000   1.0000   1.0000   1.0000   1.0000   1.0000   1.0000   1.0000
     1.0000   1.0000   1.0000   0.0573   0.0000   0.0000   0.0000   0.0000

          k = 0.2494 0.3028-0.0972 (   798 PWs)   bands (ev):

   -22.0800 -21.1718  -9.0573  -8.4243  -3.8139  -3.6041  -1.3473  -0.6439
    -0.3081   0.7071   3.7670   6.1083   6.2280   6.9420  15.2820  16.1575

     occupation numbers 
     1.0000   1.0000   1.0000   1.0000   1.0000   1.0000   1.0000   1.0000
     1.0000   1.0000   1.0000   0.0015   0.0000   0.0000   0.0000   0.0000

          k = 0.2533 0.6056 0.2032 (   804 PWs)   bands (ev):

   -21.4378 -20.8731  -8.6160  -8.1835  -3.5983  -3.5536  -1.5877  -1.2903
    -0.9978   0.1736   3.5524   4.2064   5.5459   6.7665  15.2553  15.5942

     occupation numbers 
     1.0000   1.0000   1.0000   1.0000   1.0000   1.0000   1.0000   1.0000
     1.0000   1.0000   1.0000   1.0000   0.9980   0.0000   0.0000   0.0000

          k = 0.2571 0.6056 0.5037 (   804 PWs)   bands (ev):

   -21.3863 -20.8811  -9.2449  -8.0840  -3.6020  -3.0433  -1.5777  -1.0798
    -0.8194   0.1384   3.5013   4.2610   5.5296   6.8487  14.0840  15.4041

     occupation numbers 
     1.0000   1.0000   1.0000   1.0000   1.0000   1.0000   1.0000   1.0000
     1.0000   1.0000   1.0000   1.0000   0.9988   0.0000   0.0000   0.0000

          k = 0.2455 0.6056-0.3976 (   806 PWs)   bands (ev):

   -21.4057 -20.9008  -9.0297  -7.7918  -3.8617  -3.1822  -1.6478  -1.2087
    -1.1830   0.2341   3.7873   4.5473   5.2201   6.6374  14.5839  16.1114

     occupation numbers 
     1.0000   1.0000   1.0000   1.0000   1.0000   1.0000   1.0000   1.0000
     1.0000   1.0000   1.0000   1.0000   1.0000   0.0000   0.0000   0.0000

          k = 0.2494 0.6056-0.0972 (   805 PWs)   bands (ev):

   -21.4568 -20.8929  -8.3309  -7.9144  -3.8463  -3.6991  -1.7726  -1.6224
    -1.1336   0.2681   3.9334   4.5076   5.2359   6.5532  15.7251  16.2428

     occupation numbers 
     1.0000   1.0000   1.0000   1.0000   1.0000   1.0000   1.0000   1.0000
     1.0000   1.0000   1.0000   1.0000   1.0000   0.0000   0.0000   0.0000

          k = 0.2533-0.9084 0.2032 (   810 PWs)   bands (ev):

   -20.9132 -20.9130  -8.0188  -8.0188  -4.1488  -4.1488  -1.2396  -1.2395
    -0.6565  -0.6564   3.1269   3.1270   6.1682   6.1683  15.6713  15.6713

     occupation numbers 
     1.0000   1.0000   1.0000   1.0000   1.0000   1.0000   1.0000   1.0000
     1.0000   1.0000   1.0000   1.0000   0.0002   0.0002   0.0000   0.0000

          k = 0.2571-0.9084 0.5037 (   800 PWs)   bands (ev):

   -20.8927 -20.8925  -8.2952  -8.2951  -3.9890  -3.9890  -0.9721  -0.9720
    -0.6592  -0.6591   3.0796   3.0797   6.2416   6.2416  15.0397  15.0397

     occupation numbers 
     1.0000   1.0000   1.0000   1.0000   1.0000   1.0000   1.0000   1.0000
     1.0000   1.0000   1.0000   1.0000   0.0000   0.0000   0.0000   0.0000

          k = 0.2455-0.9084-0.3976 (   800 PWs)   bands (ev):

   -20.9098 -20.9096  -8.0704  -8.0704  -4.1180  -4.1179  -1.4176  -1.4175
    -0.4966  -0.4966   3.4155   3.4156   5.9831   5.9832  15.5318  15.5318

     occupation numbers 
     1.0000   1.0000   1.0000   1.0000   1.0000   1.0000   1.0000   1.0000
     1.0000   1.0000   1.0000   1.0000   0.0472   0.0471   0.0000   0.0000

          k = 0.2494-0.9084-0.0972 (   818 PWs)   bands (ev):

   -20.9303 -20.9301  -7.7670  -7.7670  -4.2580  -4.2580  -1.7552  -1.7551
    -0.4965  -0.4964   3.5308   3.5310   5.8987   5.8988  16.1164  16.1165

     occupation numbers 
     1.0000   1.0000   1.0000   1.0000   1.0000   1.0000   1.0000   1.0000
     1.0000   1.0000   1.0000   1.0000   0.2131   0.2129   0.0000   0.0000

          k =-0.5065 0.0000-0.4065 (   788 PWs)   bands (ev):

   -21.8089 -21.8088  -9.6901  -9.6901  -2.5471  -2.5471  -1.0700  -1.0700
     0.8305   0.8306   5.3475   5.3475   7.1107   7.1108  13.9481  13.9481

     occupation numbers 
     1.0000   1.0000   1.0000   1.0000   1.0000   1.0000   1.0000   1.0000
     1.0000   1.0000   1.0000   1.0000   0.0000   0.0000   0.0000   0.0000

          k =-0.5027 0.0000-0.1060 (   793 PWs)   bands (ev):

   -21.8735 -21.7942  -9.8421  -8.8654  -3.7269  -2.3842  -1.1831  -0.8613
     0.7540   0.8559   5.1642   5.2023   7.0570   7.2804  13.5734  16.0261

     occupation numbers 
     1.0000   1.0000   1.0000   1.0000   1.0000   1.0000   1.0000   1.0000
     1.0000   1.0000   1.0000   1.0000   0.0000   0.0000   0.0000   0.0000

          k =-0.5143 0.0000-1.0073 (   802 PWs)   bands (ev):

   -21.8594 -21.8592  -9.0753  -9.0753  -3.4582  -3.4582  -1.0426  -1.0426
     0.7783   0.7783   5.0186   5.0187   7.2271   7.2272  15.5069  15.5070

     occupation numbers 
     1.0000   1.0000   1.0000   1.0000   1.0000   1.0000   1.0000   1.0000
     1.0000   1.0000   1.0000   1.0000   0.0000   0.0000   0.0000   0.0000

          k =-0.5065 0.3028-0.4065 (   790 PWs)   bands (ev):

   -21.5971 -21.5970  -9.3824  -9.3824  -2.6696  -2.6696  -0.9736  -0.9736
     0.0578   0.0578   5.0110   5.0111   6.6371   6.6372  14.1923  14.1923

     occupation numbers 
     1.0000   1.0000   1.0000   1.0000   1.0000   1.0000   1.0000   1.0000
     1.0000   1.0000   1.0000   1.0000   0.0000   0.0000   0.0000   0.0000

          k =-0.5027 0.3028-0.1060 (   797 PWs)   bands (ev):

   -21.6555 -21.5853  -9.5082  -8.6212  -3.6664  -2.5345  -1.1640  -0.8450
    -0.0012   0.0928   4.9768   4.9948   6.4909   6.6936  13.9093  16.0938

     occupation numbers 
     1.0000   1.0000   1.0000   1.0000   1.0000   1.0000   1.0000   1.0000
     1.0000   1.0000   1.0000   1.0000   0.0000   0.0000   0.0000   0.0000

          k =-0.5143 0.3028-1.0073 (   798 PWs)   bands (ev):

   -21.6441 -21.6440  -8.7940  -8.7940  -3.4256  -3.4256  -1.1415  -1.1414
     0.0541   0.0541   4.9723   4.9724   6.5712   6.5713  15.6181  15.6181

     occupation numbers 
     1.0000   1.0000   1.0000   1.0000   1.0000   1.0000   1.0000   1.0000
     1.0000   1.0000   1.0000   1.0000   0.0000   0.0000   0.0000   0.0000

          k =-0.5065 0.6056-0.4065 (   798 PWs)   bands (ev):

   -21.1390 -21.1389  -8.6767  -8.6767  -3.5852  -3.5852  -0.9931  -0.9930
    -0.3284  -0.3283   3.5895   3.5896   6.5397   6.5398  14.7370  14.7370

     occupation numbers 
     1.0000   1.0000   1.0000   1.0000   1.0000   1.0000   1.0000   1.0000
     1.0000   1.0000   1.0000   1.0000   0.0000   0.0000   0.0000   0.0000

          k =-0.5027 0.6056-0.1060 (   804 PWs)   bands (ev):

   -21.1796 -21.1371  -8.6962  -8.1199  -4.0131  -3.6068  -1.4877  -1.0732
    -0.2531  -0.2276   3.6826   3.8365   6.3309   6.3860  14.7595  16.1063

     occupation numbers 
     1.0000   1.0000   1.0000   1.0000   1.0000   1.0000   1.0000   1.0000
     1.0000   1.0000   1.0000   1.0000   0.0000   0.0000   0.0000   0.0000

          k =-0.5143 0.6056-1.0073 (   802 PWs)   bands (ev):

   -21.1779 -21.1778  -8.1553  -8.1553  -3.9007  -3.9006  -1.7564  -1.7563
    -0.1459  -0.1458   4.0629   4.0630   6.1687   6.1688  15.8388  15.8389

     occupation numbers 
     1.0000   1.0000   1.0000   1.0000   1.0000   1.0000   1.0000   1.0000
     1.0000   1.0000   1.0000   1.0000   0.0002   0.0002   0.0000   0.0000

          k =-0.5065-0.9084-0.4065 (   816 PWs)   bands (ev):

   -20.8895 -20.8894  -8.2608  -8.2608  -4.2868  -4.2867  -1.0038  -1.0037
    -0.1966  -0.1965   2.7575   2.7576   6.6407   6.6407  15.0478  15.0478

     occupation numbers 
     1.0000   1.0000   1.0000   1.0000   1.0000   1.0000   1.0000   1.0000
     1.0000   1.0000   1.0000   1.0000   0.0000   0.0000   0.0000   0.0000

          k =-0.5027-0.9084-0.1060 (   812 PWs)   bands (ev):

   -20.9063 -20.9061  -8.0264  -8.0263  -4.4491  -4.4491  -1.2991  -1.2991
    -0.1154  -0.1153   2.9516   2.9517   6.4504   6.4504  15.6677  15.6677

     occupation numbers 
     1.0000   1.0000   1.0000   1.0000   1.0000   1.0000   1.0000   1.0000
     1.0000   1.0000   1.0000   1.0000   0.0000   0.0000   0.0000   0.0000

          k =-0.5143-0.9084-1.0073 (   816 PWs)   bands (ev):

   -20.9236 -20.9234  -7.7848  -7.7847  -4.4922  -4.4922  -1.8299  -1.8299
    -0.0325  -0.0324   3.3410   3.3411   6.2596   6.2597  15.9485  15.9486

     occupation numbers 
     1.0000   1.0000   1.0000   1.0000   1.0000   1.0000   1.0000   1.0000
     1.0000   1.0000   1.0000   1.0000   0.0000   0.0000   0.0000   0.0000

     the Fermi energy is     5.8222 ev

!    total energy              =    -127.65262720 Ry
     Harris-Foulkes estimate   =    -127.65262712 Ry
     estimated scf accuracy    <          5.3E-09 Ry

     The total energy is the sum of the following terms:

     one-electron contribution =     -38.87413509 Ry
     hartree contribution      =      32.72174020 Ry
     xc contribution           =     -27.34905420 Ry
     ewald contribution        =     -94.15043858 Ry
     smearing contrib. (-TS)   =      -0.00073952 Ry

     convergence has been achieved in  10 iterations

     Forces acting on atoms (cartesian axes, Ry/au):

     atom    1 type  1   force =    -0.00003041    0.00000000    0.00000546
     atom    2 type  1   force =    -0.00002912   -0.00000000    0.00000928
     atom    3 type  1   force =     0.00002912   -0.00000000   -0.00000928
     atom    4 type  1   force =     0.00003041    0.00000000   -0.00000546
     The non-local contrib.  to forces
     atom    1 type  1   force =    -0.03954863    0.00000000   -3.19505243
     atom    2 type  1   force =    -0.03955284    0.00000000   -3.19506718
     atom    3 type  1   force =     0.03955284    0.00000000    3.19506718
     atom    4 type  1   force =     0.03954863    0.00000000    3.19505243
     The ionic contribution  to forces
     atom    1 type  1   force =     0.15192323   -0.00000000   12.07923270
     atom    2 type  1   force =     0.15193379    0.00000000   12.07930829
     atom    3 type  1   force =    -0.15193379   -0.00000000  -12.07930829
     atom    4 type  1   force =    -0.15192323   -0.00000000  -12.07923270
     The local contribution  to forces
     atom    1 type  1   force =    -0.11240466    0.00000000   -8.88396164
     atom    2 type  1   force =    -0.11240587    0.00000000   -8.88403588
     atom    3 type  1   force =     0.11240587    0.00000000    8.88403588
     atom    4 type  1   force =     0.11240466    0.00000000    8.88396164
     The core correction contribution to forces
     atom    1 type  1   force =     0.00000000    0.00000000    0.00000000
     atom    2 type  1   force =     0.00000000    0.00000000    0.00000000
     atom    3 type  1   force =     0.00000000    0.00000000    0.00000000
     atom    4 type  1   force =     0.00000000    0.00000000    0.00000000
     The Hubbard contrib.    to forces
     atom    1 type  1   force =     0.00000000    0.00000000    0.00000000
     atom    2 type  1   force =     0.00000000    0.00000000    0.00000000
     atom    3 type  1   force =     0.00000000    0.00000000    0.00000000
     atom    4 type  1   force =     0.00000000    0.00000000    0.00000000
     The SCF correction term to forces
     atom    1 type  1   force =    -0.00000034   -0.00000000   -0.00021317
     atom    2 type  1   force =    -0.00000420   -0.00000000   -0.00019594
     atom    3 type  1   force =     0.00000420   -0.00000000    0.00019594
     atom    4 type  1   force =     0.00000034   -0.00000000    0.00021317

     Total force =     0.000061     Total SCF correction =     0.000410
     SCF correction compared to forces is large: reduce conv_thr to get better values


     Computing stress (Cartesian axis) and pressure

          total   stress  (Ry/bohr**3)                   (kbar)     P=  149.94
   0.00101958   0.00000000   0.00001170        149.99      0.00      1.72
   0.00000000   0.00102251   0.00000000          0.00    150.42      0.00
   0.00001170   0.00000000   0.00101580          1.72      0.00    149.43

     kinetic stress (kbar)  24221.68      0.00    -39.03
                                0.00  24002.75      0.00
                              -39.03      0.00  20946.83

     local   stress (kbar) -14581.00      0.00    -62.02
                                0.00 -16260.19      0.00
                              -62.02      0.00 -21348.42

     nonloc. stress (kbar)  13797.47      0.00    -22.33
                                0.00  13696.07      0.00
                              -22.33      0.00  12001.37

     hartree stress (kbar)   7211.94     -0.00    -25.59
                               -0.00   7865.34      0.00
                              -25.59      0.00   5925.41

     exc-cor stress (kbar)  -5560.42     -0.00      1.02
                               -0.00  -5556.58      0.00
                                1.02      0.00  -5481.26

     corecor stress (kbar)      0.00      0.00      0.00
                                0.00      0.00      0.00
                                0.00      0.00      0.00

     ewald   stress (kbar) -24939.69     -0.00    149.67
                               -0.00 -23596.97     -0.00
                              149.67     -0.00 -11894.51

     hubbard stress (kbar)      0.00      0.00      0.00
                                0.00      0.00      0.00
                                0.00      0.00      0.00

     london  stress (kbar)      0.00      0.00      0.00
                                0.00      0.00      0.00
                                0.00      0.00      0.00

     DFT-D3  stress (kbar)      0.00      0.00      0.00
                                0.00      0.00      0.00
                                0.00      0.00      0.00

     XDM     stress (kbar)      0.00      0.00      0.00
                                0.00      0.00      0.00
                                0.00      0.00      0.00

     dft-nl  stress (kbar)      0.00      0.00      0.00
                                0.00      0.00      0.00
                                0.00      0.00      0.00

     TS-vdW  stress (kbar)      0.00      0.00      0.00
                                0.00      0.00      0.00
                                0.00      0.00      0.00



     Writing output data file O2alpha.save/
 
     init_run     :      0.43s CPU      0.51s WALL (       2 calls)
     electrons    :     81.84s CPU     95.01s WALL (      30 calls)
     update_pot   :      2.78s CPU      2.99s WALL (      28 calls)
     forces       :      1.76s CPU      1.95s WALL (      30 calls)
     stress       :      3.78s CPU      3.87s WALL (      30 calls)

     Called by init_run:
     wfcinit      :      0.20s CPU      0.24s WALL (       2 calls)
     wfcinit:atom :      0.00s CPU      0.00s WALL (      80 calls)
     wfcinit:wfcr :      0.19s CPU      0.21s WALL (      80 calls)
     potinit      :      0.10s CPU      0.10s WALL (       2 calls)
     hinit0       :      0.12s CPU      0.13s WALL (       2 calls)

     Called by electrons:
     c_bands      :     68.83s CPU     79.15s WALL (     229 calls)
     sum_band     :     10.78s CPU     11.84s WALL (     229 calls)
     v_of_rho     :      1.42s CPU      1.44s WALL (     242 calls)
     v_h          :      0.09s CPU      0.08s WALL (     242 calls)
     v_xc         :      1.32s CPU      1.36s WALL (     242 calls)
     newd         :      0.64s CPU      0.62s WALL (     242 calls)
     mix_rho      :      0.16s CPU      0.15s WALL (     229 calls)

     Called by c_bands:
     init_us_2    :      0.88s CPU      1.03s WALL (   20800 calls)
     cegterg      :     66.62s CPU     72.20s WALL (    9160 calls)

     Called by sum_band:
     sum_band:bec :      0.06s CPU      0.10s WALL (    9160 calls)
     addusdens    :      0.63s CPU      0.61s WALL (     229 calls)

     Called by *egterg:
     h_psi        :     45.37s CPU     49.86s WALL (   27093 calls)
     s_psi        :      1.19s CPU      0.99s WALL (   27093 calls)
     g_psi        :      0.43s CPU      0.45s WALL (   17853 calls)
     cdiaghg      :     11.69s CPU     12.44s WALL (   25213 calls)
     cegterg:over :      3.58s CPU      3.91s WALL (   17853 calls)
     cegterg:upda :      0.80s CPU      0.88s WALL (   17853 calls)
     cegterg:last :      0.42s CPU      0.47s WALL (    9487 calls)

     Called by h_psi:
     h_psi:pot    :     45.24s CPU     49.66s WALL (   27093 calls)
     h_psi:calbec :      2.63s CPU      2.64s WALL (   27093 calls)
     vloc_psi     :     41.47s CPU     45.70s WALL (   27093 calls)
     add_vuspsi   :      0.93s CPU      1.09s WALL (   27093 calls)

     General routines
     calbec       :      3.86s CPU      4.03s WALL (   42253 calls)
     fft          :      0.89s CPU      0.93s WALL (    3371 calls)
     ffts         :      0.03s CPU      0.05s WALL (     471 calls)
     fftw         :     45.33s CPU     49.89s WALL (  902674 calls)
     interpolate  :      0.09s CPU      0.09s WALL (     242 calls)
 
     Parallel routines
     fft_scatt_xy :      4.73s CPU      4.91s WALL (  906516 calls)
     fft_scatt_yz :     22.01s CPU     25.02s WALL (  906516 calls)
 
     PWSCF        :   1m32.06s CPU   1m49.67s WALL

 
   This run was terminated on:   9:33:18   5Jan2021            

=------------------------------------------------------------------------------=
   JOB DONE.
=------------------------------------------------------------------------------=
